19
 Atoms. Timestep: 0
C 1.068 49.915 0.025
C 2.584 49.976 49.994
N 3.087 0.074 48.638
C 3.309 1.333 47.976
C 3.448 0.943 46.517
C 4.01 49.527 46.566
C 3.453 48.988 47.859
O 3.394 47.81 48.169
H 0.711 49.83 1.056
H 0.699 49.05 49.462
H 0.627 0.814 49.582
H 2.989 49.067 0.452
H 2.952 0.835 0.566
H 4.23 1.774 48.371
H 2.469 2.014 48.142
H 4.077 1.633 45.95
H 2.458 0.924 46.044
H 5.103 49.53 46.626
H 3.678 48.93 45.713
19
 Atoms. Timestep: 58
C 1.0845 49.912 0.018308
C 2.62082 49.9663 50.0129
N 3.11817 0.0492436 48.6379
C 3.24875 1.34764 47.9806
C 3.49177 0.977241 46.5058
C 3.96172 49.5022 46.5593
C 3.47481 48.9977 47.8812
O 3.41007 47.8366 48.216
H 0.70174 49.8162 1.03594
H 0.74896 49.046 49.4399
H 0.66179 0.809568 49.5645
H 3.02636 49.0567 0.475816
H 2.97875 0.828133 0.586092
H 4.1125 1.87841 48.3954
H 2.34213 1.94909 48.1014
H 4.22155 1.63565 46.0254
H 2.54626 1.04231 45.9581
H 5.04909 49.4247 46.5564
H 3.54625 48.8915 45.757
