LAMMPS data file via write_data, version 2 Aug 2023, timestep = 58, units = real

19 atoms
71 atom types
19 bonds
807 bond types
36 angles
4248 angle types
49 dihedrals
641 dihedral types
2 impropers
38 improper types

0 50 xlo xhi
0 50 ylo yhi
0 50 zlo zhi

Masses

1 12.01
2 12.01
3 12.01
4 12.01
5 12.01
6 12.01
7 12.01
8 12.01
9 12.01
10 12.01
11 12.01
12 12.01
13 12.01
14 12.01
15 12.01
16 12.01
17 12.01
18 12.01
19 1.008
20 1.008
21 1.008
22 1.008
23 1.008
24 1.008
25 1.008
26 1.008
27 1.008
28 1.008
29 1.008
30 1.008
31 1.008
32 19
33 35.45
34 79.90000000000001
35 126.9
36 14.01
37 14.01
38 14.01
39 14.01
40 14.01
41 14.01
42 14.01
43 14.01
44 14.01
45 14.01
46 14.01
47 14.01
48 14.01
49 16
50 16
51 16
52 16
53 30.97
54 30.97
55 30.97
56 30.97
57 30.97
58 30.97
59 30.97
60 30.97
61 30.97
62 30.97
63 30.97
64 32.06
65 32.06
66 32.06
67 32.06
68 32.06
69 32.06
70 32.06
71 32.06

Atoms # full

13 1 19 0.1216 2.9787548895430493 0.8281328197382536 0.5860922260755935 0 0 0
1 1 4 -0.4161 1.0845001601612838 49.91195104999133 0.018307963747503795 0 -1 0
9 1 25 0.1549 0.7017398755409276 49.816181820425626 1.0359442709160496 0 -1 0
12 1 19 0.1455 3.0263574333274508 49.05671336157376 0.4758159901297741 0 -1 0
2 1 4 -0.041 2.6208249303325375 49.96625085131734 0.012928122849743318 0 -1 0
3 1 36 -0.4603 3.1181659536708364 0.04924356358363963 48.63792280028466 0 0 -1
4 1 4 -0.09089999999999999 3.2487518634571484 1.3476363272852203 47.980560097543226 0 0 -1
5 1 4 -0.2218 3.491767798330757 0.9772414207138279 46.50575702717323 0 0 -1
11 1 25 0.1636 0.6617896466734083 0.8095677062689609 49.56454648436526 0 0 -1
14 1 19 0.129 4.1125008126440346 1.8784068157593818 48.39540107551037 0 0 -1
15 1 19 0.1243 2.3421292732871395 1.9490861247780409 48.10139690582713 0 0 -1
16 1 25 0.1315 4.221552523957629 1.6356521335222998 46.0254232801903 0 0 -1
17 1 25 0.1416 2.546260505216815 1.0423128269722397 45.95810129935563 0 0 -1
6 1 4 -0.3187 3.9617222185851135 49.50219715649671 46.559299540290155 0 -1 -1
7 1 1 0.4752 3.474808009764348 48.997694643679594 47.881195310059674 0 -1 -1
8 1 49 -0.5417 3.410072745111831 47.836590843539774 48.21596930254638 0 -1 -1
10 1 25 0.1801 0.7489600171599555 49.04599136865511 49.43990312082591 0 -1 -1
18 1 25 0.1609 5.049094151058011 49.42465910801962 46.55639244440105 0 -1 -1
19 1 25 0.1622 3.5462471921777245 48.89149005767932 45.7570427379083 0 -1 -1

Velocities

13 0.0010168310969422762 0.0007142035213888756 -0.00024483542254669343
1 -0.00041757442857458347 0.00040170948083642394 0.00026449515033303206
9 0.0008464659881601327 1.0632142158127733e-05 -0.0009142133643027333
12 -0.0009955649438044788 0.0006301129984841503 0.0008571085529494024
2 0.00020868551948279387 5.812419379767403e-05 0.0003560105661024199
3 0.0003273711922152435 -0.00010198195849737495 -4.174311504020257e-05
4 -0.0006187931934056676 5.5459223410946697e-05 0.00015402263415649028
5 -1.9774185444304655e-05 -0.0004255311752654447 -0.00035971150381005793
11 -0.0008917635366642281 -0.0005526291350698301 0.00040506291721983197
14 0.0005889197810618549 -0.0013085905926026587 -0.0009953431217181769
15 -0.00019183113878888696 -0.00036356637621762575 0.0003688888034724116
16 0.0005003729947715941 0.0005555220435744661 0.0025064989643650976
17 0.0009330829115220797 0.0008725084481949137 -0.000725590193780704
6 0.00026398151557558526 0.00025032376404098044 -0.0001296700890006676
7 -1.8068073030037025e-05 1.1197543616394793e-05 0.00013562259722376682
8 -1.4763526623296837e-05 -9.173242023713732e-05 -0.00042602506409691957
10 0.00014481225823628085 -0.0009912872828983042 0.0003798845695325029
18 -0.0003482963503750892 -0.0005453734765559296 0.0003235439662572919
19 0.0012484348241028644 -0.00033346010117608026 0.00036814325082766525

Bonds

1 113 1 2
2 128 1 9
3 128 1 10
4 128 1 11
5 133 2 3
6 125 2 12
7 125 2 13
8 133 3 4
9 362 3 7
10 113 4 5
11 125 4 14
12 125 4 15
13 113 5 6
14 128 5 16
15 128 5 17
16 207 6 7
17 128 6 18
18 128 6 19
19 368 7 8

Angles

1 327 2 1 9
2 327 2 1 10
3 327 2 1 11
4 520 9 1 10
5 520 9 1 11
6 520 10 1 11
7 325 1 2 12
8 325 1 2 13
9 334 1 2 3
10 475 12 2 13
11 479 3 2 12
12 479 3 2 13
13 2346 2 3 4
14 2380 2 3 7
15 2380 4 3 7
16 325 5 4 14
17 325 5 4 15
18 334 3 4 5
19 475 14 4 15
20 479 3 4 14
21 479 3 4 15
22 315 4 5 6
23 327 4 5 16
24 327 4 5 17
25 327 6 5 16
26 327 6 5 17
27 520 16 5 17
28 327 5 6 18
29 327 5 6 19
30 375 5 6 7
31 430 7 6 18
32 430 7 6 19
33 520 18 6 19
34 759 3 7 6
35 762 6 7 8
36 1379 3 7 8

Dihedrals

1 162 9 1 2 12
2 162 9 1 2 13
3 162 10 1 2 12
4 162 10 1 2 13
5 162 11 1 2 12
6 162 11 1 2 13
7 162 3 2 1 9
8 162 3 2 1 10
9 162 3 2 1 11
10 166 1 2 3 4
11 594 1 2 3 7
12 16 2 3 7 6
13 16 4 3 7 6
14 16 2 3 7 8
15 16 4 3 7 8
16 166 2 3 4 5
17 166 4 3 2 12
18 166 4 3 2 13
19 166 2 3 4 14
20 166 2 3 4 15
21 166 7 3 2 12
22 166 7 3 2 13
23 166 7 3 4 14
24 166 7 3 4 15
25 162 3 4 5 16
26 162 3 4 5 17
27 162 3 4 5 6
28 162 14 4 5 16
29 162 15 4 5 16
30 162 14 4 5 17
31 162 15 4 5 17
32 594 5 4 3 7
33 162 4 5 6 7
34 162 6 5 4 14
35 162 6 5 4 15
36 611 16 5 6 18
37 611 16 5 6 19
38 611 17 5 6 18
39 611 17 5 6 19
40 612 4 5 6 18
41 612 4 5 6 19
42 10 5 6 7 8
43 162 7 6 5 16
44 162 7 6 5 17
45 10 3 7 6 18
46 10 3 7 6 19
47 595 3 7 6 5
48 610 8 7 6 18
49 610 8 7 6 19

Impropers

1 7 2 4 3 7
2 2 3 6 7 8
