LAMMPS Description

     3840  atoms
     3840  bonds
     7200  angles
     9600  dihedrals
     480  impropers

     71  atom types
     807  bond types
     4248  angle types
     641  dihedral types
     38  improper types

  0.0 200 xlo xhi
  0.0 200 ylo yhi
  0.0 200 zlo zhi

Masses

1 12.01  # c
2 12.01  # c1
3 12.01  # c2
4 12.01  # c3
5 12.01  # ca
6 12.01  # cp
7 12.01  # cq
8 12.01  # cc
9 12.01  # cd
10 12.01  # ce
11 12.01  # cf
12 12.01  # cg
13 12.01  # ch
14 12.01  # cx
15 12.01  # cy
16 12.01  # cu
17 12.01  # cv
18 12.01  # cz
19 1.008  # h1
20 1.008  # h2
21 1.008  # h3
22 1.008  # h4
23 1.008  # h5
24 1.008  # ha
25 1.008  # hc
26 1.008  # hn
27 1.008  # ho
28 1.008  # hp
29 1.008  # hs
30 1.008  # hw
31 1.008  # hx
32 19.00  # f
33 35.45  # cl
34 79.90  # br
35 126.9  # i
36 14.01  # n
37 14.01  # n1
38 14.01  # n2
39 14.01  # n3
40 14.01  # n4
41 14.01  # na
42 14.01  # nb
43 14.01  # nc
44 14.01  # nd
45 14.01  # ne
46 14.01  # nf
47 14.01  # nh
48 14.01  # no
49 16.00  # o
50 16.00  # oh
51 16.00  # os
52 16.00  # ow
53 30.97  # p2
54 30.97  # p3
55 30.97  # p4
56 30.97  # p5
57 30.97  # pb
58 30.97  # pc
59 30.97  # pd
60 30.97  # pe
61 30.97  # pf
62 30.97  # px
63 30.97  # py
64 32.06  # s
65 32.06  # s2
66 32.06  # s4
67 32.06  # s6
68 32.06  # sh
69 32.06  # ss
70 32.06  # sx
71 32.06  # sy

Atoms  # full

1 1 4 -0.2457 2.6399999999999997 5.638 3.945
2 1 36 -0.4193 3.766 4.744 3.808
3 1 4 -0.0957 5.103 5.154 4.142
4 1 4 -0.218 5.93 3.916 3.849
5 1 4 -0.3149 4.979 2.7640000000000002 4.151
6 1 1 0.4689 3.613 3.365 3.932
7 1 49 -0.5331 2.561 2.748 3.934
8 1 19 0.1496 2.9450000000000003 6.659 3.711
9 1 19 0.1612 2.2640000000000002 5.58 4.971
10 1 19 0.1719 1.8450000000000002 5.322 3.262
11 1 19 0.1334 5.139 5.421 5.203
12 1 19 0.1309 5.4030000000000005 6.008 3.529
13 1 25 0.1349 6.851 3.874 4.436
14 1 25 0.1464 6.205 3.892 2.787
15 1 25 0.1638 5.061 2.4450000000000003 5.195
16 1 25 0.1655 5.145 1.916 3.482
17 2 4 -0.2457 2.6399999999999997 5.638 41.945
18 2 36 -0.4193 3.766 4.744 41.808
19 2 4 -0.0957 5.103 5.154 42.142
20 2 4 -0.218 5.93 3.916 41.849
21 2 4 -0.3149 4.979 2.7640000000000002 42.151
22 2 1 0.4689 3.613 3.365 41.932
23 2 49 -0.5331 2.561 2.748 41.934
24 2 19 0.1496 2.9450000000000003 6.659 41.711
25 2 19 0.1612 2.2640000000000002 5.58 42.971
26 2 19 0.1719 1.8450000000000002 5.322 41.262
27 2 19 0.1334 5.139 5.421 43.203
28 2 19 0.1309 5.4030000000000005 6.008 41.529
29 2 25 0.1349 6.851 3.874 42.436
30 2 25 0.1464 6.205 3.892 40.787
31 2 25 0.1638 5.061 2.4450000000000003 43.195
32 2 25 0.1655 5.145 1.916 41.482
33 3 4 -0.2457 2.6399999999999997 5.638 79.945
34 3 36 -0.4193 3.766 4.744 79.808
35 3 4 -0.0957 5.103 5.154 80.142
36 3 4 -0.218 5.93 3.916 79.849
37 3 4 -0.3149 4.979 2.7640000000000002 80.151
38 3 1 0.4689 3.613 3.365 79.932
39 3 49 -0.5331 2.561 2.748 79.934
40 3 19 0.1496 2.9450000000000003 6.659 79.711
41 3 19 0.1612 2.2640000000000002 5.58 80.971
42 3 19 0.1719 1.8450000000000002 5.322 79.262
43 3 19 0.1334 5.139 5.421 81.203
44 3 19 0.1309 5.4030000000000005 6.008 79.529
45 3 25 0.1349 6.851 3.874 80.436
46 3 25 0.1464 6.205 3.892 78.787
47 3 25 0.1638 5.061 2.4450000000000003 81.195
48 3 25 0.1655 5.145 1.916 79.482
49 4 4 -0.2457 2.6399999999999997 5.638 117.945
50 4 36 -0.4193 3.766 4.744 117.808
51 4 4 -0.0957 5.103 5.154 118.142
52 4 4 -0.218 5.93 3.916 117.849
53 4 4 -0.3149 4.979 2.7640000000000002 118.151
54 4 1 0.4689 3.613 3.365 117.932
55 4 49 -0.5331 2.561 2.748 117.934
56 4 19 0.1496 2.9450000000000003 6.659 117.711
57 4 19 0.1612 2.2640000000000002 5.58 118.971
58 4 19 0.1719 1.8450000000000002 5.322 117.262
59 4 19 0.1334 5.139 5.421 119.203
60 4 19 0.1309 5.4030000000000005 6.008 117.529
61 4 25 0.1349 6.851 3.874 118.436
62 4 25 0.1464 6.205 3.892 116.787
63 4 25 0.1638 5.061 2.4450000000000003 119.195
64 4 25 0.1655 5.145 1.916 117.482
65 5 4 -0.2457 2.6399999999999997 35.638 3.945
66 5 36 -0.4193 3.766 34.744 3.808
67 5 4 -0.0957 5.103 35.153999999999996 4.142
68 5 4 -0.218 5.93 33.916 3.849
69 5 4 -0.3149 4.979 32.764 4.151
70 5 1 0.4689 3.613 33.365 3.932
71 5 49 -0.5331 2.561 32.748 3.934
72 5 19 0.1496 2.9450000000000003 36.659 3.711
73 5 19 0.1612 2.2640000000000002 35.58 4.971
74 5 19 0.1719 1.8450000000000002 35.322 3.262
75 5 19 0.1334 5.139 35.421 5.203
76 5 19 0.1309 5.4030000000000005 36.008 3.529
77 5 25 0.1349 6.851 33.874 4.436
78 5 25 0.1464 6.205 33.892 2.787
79 5 25 0.1638 5.061 32.445 5.195
80 5 25 0.1655 5.145 31.916 3.482
81 6 4 -0.2457 2.6399999999999997 35.638 41.945
82 6 36 -0.4193 3.766 34.744 41.808
83 6 4 -0.0957 5.103 35.153999999999996 42.142
84 6 4 -0.218 5.93 33.916 41.849
85 6 4 -0.3149 4.979 32.764 42.151
86 6 1 0.4689 3.613 33.365 41.932
87 6 49 -0.5331 2.561 32.748 41.934
88 6 19 0.1496 2.9450000000000003 36.659 41.711
89 6 19 0.1612 2.2640000000000002 35.58 42.971
90 6 19 0.1719 1.8450000000000002 35.322 41.262
91 6 19 0.1334 5.139 35.421 43.203
92 6 19 0.1309 5.4030000000000005 36.008 41.529
93 6 25 0.1349 6.851 33.874 42.436
94 6 25 0.1464 6.205 33.892 40.787
95 6 25 0.1638 5.061 32.445 43.195
96 6 25 0.1655 5.145 31.916 41.482
97 7 4 -0.2457 2.6399999999999997 35.638 79.945
98 7 36 -0.4193 3.766 34.744 79.808
99 7 4 -0.0957 5.103 35.153999999999996 80.142
100 7 4 -0.218 5.93 33.916 79.849
101 7 4 -0.3149 4.979 32.764 80.151
102 7 1 0.4689 3.613 33.365 79.932
103 7 49 -0.5331 2.561 32.748 79.934
104 7 19 0.1496 2.9450000000000003 36.659 79.711
105 7 19 0.1612 2.2640000000000002 35.58 80.971
106 7 19 0.1719 1.8450000000000002 35.322 79.262
107 7 19 0.1334 5.139 35.421 81.203
108 7 19 0.1309 5.4030000000000005 36.008 79.529
109 7 25 0.1349 6.851 33.874 80.436
110 7 25 0.1464 6.205 33.892 78.787
111 7 25 0.1638 5.061 32.445 81.195
112 7 25 0.1655 5.145 31.916 79.482
113 8 4 -0.2457 2.6399999999999997 35.638 117.945
114 8 36 -0.4193 3.766 34.744 117.808
115 8 4 -0.0957 5.103 35.153999999999996 118.142
116 8 4 -0.218 5.93 33.916 117.849
117 8 4 -0.3149 4.979 32.764 118.151
118 8 1 0.4689 3.613 33.365 117.932
119 8 49 -0.5331 2.561 32.748 117.934
120 8 19 0.1496 2.9450000000000003 36.659 117.711
121 8 19 0.1612 2.2640000000000002 35.58 118.971
122 8 19 0.1719 1.8450000000000002 35.322 117.262
123 8 19 0.1334 5.139 35.421 119.203
124 8 19 0.1309 5.4030000000000005 36.008 117.529
125 8 25 0.1349 6.851 33.874 118.436
126 8 25 0.1464 6.205 33.892 116.787
127 8 25 0.1638 5.061 32.445 119.195
128 8 25 0.1655 5.145 31.916 117.482
129 9 4 -0.2457 2.6399999999999997 65.638 3.945
130 9 36 -0.4193 3.766 64.744 3.808
131 9 4 -0.0957 5.103 65.154 4.142
132 9 4 -0.218 5.93 63.916 3.849
133 9 4 -0.3149 4.979 62.764 4.151
134 9 1 0.4689 3.613 63.365 3.932
135 9 49 -0.5331 2.561 62.748 3.934
136 9 19 0.1496 2.9450000000000003 66.659 3.711
137 9 19 0.1612 2.2640000000000002 65.58 4.971
138 9 19 0.1719 1.8450000000000002 65.322 3.262
139 9 19 0.1334 5.139 65.421 5.203
140 9 19 0.1309 5.4030000000000005 66.008 3.529
141 9 25 0.1349 6.851 63.874 4.436
142 9 25 0.1464 6.205 63.892 2.787
143 9 25 0.1638 5.061 62.445 5.195
144 9 25 0.1655 5.145 61.916 3.482
145 10 4 -0.2457 2.6399999999999997 65.638 41.945
146 10 36 -0.4193 3.766 64.744 41.808
147 10 4 -0.0957 5.103 65.154 42.142
148 10 4 -0.218 5.93 63.916 41.849
149 10 4 -0.3149 4.979 62.764 42.151
150 10 1 0.4689 3.613 63.365 41.932
151 10 49 -0.5331 2.561 62.748 41.934
152 10 19 0.1496 2.9450000000000003 66.659 41.711
153 10 19 0.1612 2.2640000000000002 65.58 42.971
154 10 19 0.1719 1.8450000000000002 65.322 41.262
155 10 19 0.1334 5.139 65.421 43.203
156 10 19 0.1309 5.4030000000000005 66.008 41.529
157 10 25 0.1349 6.851 63.874 42.436
158 10 25 0.1464 6.205 63.892 40.787
159 10 25 0.1638 5.061 62.445 43.195
160 10 25 0.1655 5.145 61.916 41.482
161 11 4 -0.2457 2.6399999999999997 65.638 79.945
162 11 36 -0.4193 3.766 64.744 79.808
163 11 4 -0.0957 5.103 65.154 80.142
164 11 4 -0.218 5.93 63.916 79.849
165 11 4 -0.3149 4.979 62.764 80.151
166 11 1 0.4689 3.613 63.365 79.932
167 11 49 -0.5331 2.561 62.748 79.934
168 11 19 0.1496 2.9450000000000003 66.659 79.711
169 11 19 0.1612 2.2640000000000002 65.58 80.971
170 11 19 0.1719 1.8450000000000002 65.322 79.262
171 11 19 0.1334 5.139 65.421 81.203
172 11 19 0.1309 5.4030000000000005 66.008 79.529
173 11 25 0.1349 6.851 63.874 80.436
174 11 25 0.1464 6.205 63.892 78.787
175 11 25 0.1638 5.061 62.445 81.195
176 11 25 0.1655 5.145 61.916 79.482
177 12 4 -0.2457 2.6399999999999997 65.638 117.945
178 12 36 -0.4193 3.766 64.744 117.808
179 12 4 -0.0957 5.103 65.154 118.142
180 12 4 -0.218 5.93 63.916 117.849
181 12 4 -0.3149 4.979 62.764 118.151
182 12 1 0.4689 3.613 63.365 117.932
183 12 49 -0.5331 2.561 62.748 117.934
184 12 19 0.1496 2.9450000000000003 66.659 117.711
185 12 19 0.1612 2.2640000000000002 65.58 118.971
186 12 19 0.1719 1.8450000000000002 65.322 117.262
187 12 19 0.1334 5.139 65.421 119.203
188 12 19 0.1309 5.4030000000000005 66.008 117.529
189 12 25 0.1349 6.851 63.874 118.436
190 12 25 0.1464 6.205 63.892 116.787
191 12 25 0.1638 5.061 62.445 119.195
192 12 25 0.1655 5.145 61.916 117.482
193 13 4 -0.2457 2.6399999999999997 95.638 3.945
194 13 36 -0.4193 3.766 94.744 3.808
195 13 4 -0.0957 5.103 95.154 4.142
196 13 4 -0.218 5.93 93.916 3.849
197 13 4 -0.3149 4.979 92.764 4.151
198 13 1 0.4689 3.613 93.365 3.932
199 13 49 -0.5331 2.561 92.748 3.934
200 13 19 0.1496 2.9450000000000003 96.659 3.711
201 13 19 0.1612 2.2640000000000002 95.58 4.971
202 13 19 0.1719 1.8450000000000002 95.322 3.262
203 13 19 0.1334 5.139 95.421 5.203
204 13 19 0.1309 5.4030000000000005 96.008 3.529
205 13 25 0.1349 6.851 93.874 4.436
206 13 25 0.1464 6.205 93.892 2.787
207 13 25 0.1638 5.061 92.445 5.195
208 13 25 0.1655 5.145 91.916 3.482
209 14 4 -0.2457 2.6399999999999997 95.638 41.945
210 14 36 -0.4193 3.766 94.744 41.808
211 14 4 -0.0957 5.103 95.154 42.142
212 14 4 -0.218 5.93 93.916 41.849
213 14 4 -0.3149 4.979 92.764 42.151
214 14 1 0.4689 3.613 93.365 41.932
215 14 49 -0.5331 2.561 92.748 41.934
216 14 19 0.1496 2.9450000000000003 96.659 41.711
217 14 19 0.1612 2.2640000000000002 95.58 42.971
218 14 19 0.1719 1.8450000000000002 95.322 41.262
219 14 19 0.1334 5.139 95.421 43.203
220 14 19 0.1309 5.4030000000000005 96.008 41.529
221 14 25 0.1349 6.851 93.874 42.436
222 14 25 0.1464 6.205 93.892 40.787
223 14 25 0.1638 5.061 92.445 43.195
224 14 25 0.1655 5.145 91.916 41.482
225 15 4 -0.2457 2.6399999999999997 95.638 79.945
226 15 36 -0.4193 3.766 94.744 79.808
227 15 4 -0.0957 5.103 95.154 80.142
228 15 4 -0.218 5.93 93.916 79.849
229 15 4 -0.3149 4.979 92.764 80.151
230 15 1 0.4689 3.613 93.365 79.932
231 15 49 -0.5331 2.561 92.748 79.934
232 15 19 0.1496 2.9450000000000003 96.659 79.711
233 15 19 0.1612 2.2640000000000002 95.58 80.971
234 15 19 0.1719 1.8450000000000002 95.322 79.262
235 15 19 0.1334 5.139 95.421 81.203
236 15 19 0.1309 5.4030000000000005 96.008 79.529
237 15 25 0.1349 6.851 93.874 80.436
238 15 25 0.1464 6.205 93.892 78.787
239 15 25 0.1638 5.061 92.445 81.195
240 15 25 0.1655 5.145 91.916 79.482
241 16 4 -0.2457 2.6399999999999997 95.638 117.945
242 16 36 -0.4193 3.766 94.744 117.808
243 16 4 -0.0957 5.103 95.154 118.142
244 16 4 -0.218 5.93 93.916 117.849
245 16 4 -0.3149 4.979 92.764 118.151
246 16 1 0.4689 3.613 93.365 117.932
247 16 49 -0.5331 2.561 92.748 117.934
248 16 19 0.1496 2.9450000000000003 96.659 117.711
249 16 19 0.1612 2.2640000000000002 95.58 118.971
250 16 19 0.1719 1.8450000000000002 95.322 117.262
251 16 19 0.1334 5.139 95.421 119.203
252 16 19 0.1309 5.4030000000000005 96.008 117.529
253 16 25 0.1349 6.851 93.874 118.436
254 16 25 0.1464 6.205 93.892 116.787
255 16 25 0.1638 5.061 92.445 119.195
256 16 25 0.1655 5.145 91.916 117.482
257 17 4 -0.2457 2.6399999999999997 125.638 3.945
258 17 36 -0.4193 3.766 124.744 3.808
259 17 4 -0.0957 5.103 125.154 4.142
260 17 4 -0.218 5.93 123.916 3.849
261 17 4 -0.3149 4.979 122.764 4.151
262 17 1 0.4689 3.613 123.365 3.932
263 17 49 -0.5331 2.561 122.748 3.934
264 17 19 0.1496 2.9450000000000003 126.659 3.711
265 17 19 0.1612 2.2640000000000002 125.58 4.971
266 17 19 0.1719 1.8450000000000002 125.322 3.262
267 17 19 0.1334 5.139 125.421 5.203
268 17 19 0.1309 5.4030000000000005 126.008 3.529
269 17 25 0.1349 6.851 123.874 4.436
270 17 25 0.1464 6.205 123.892 2.787
271 17 25 0.1638 5.061 122.445 5.195
272 17 25 0.1655 5.145 121.916 3.482
273 18 4 -0.2457 2.6399999999999997 125.638 41.945
274 18 36 -0.4193 3.766 124.744 41.808
275 18 4 -0.0957 5.103 125.154 42.142
276 18 4 -0.218 5.93 123.916 41.849
277 18 4 -0.3149 4.979 122.764 42.151
278 18 1 0.4689 3.613 123.365 41.932
279 18 49 -0.5331 2.561 122.748 41.934
280 18 19 0.1496 2.9450000000000003 126.659 41.711
281 18 19 0.1612 2.2640000000000002 125.58 42.971
282 18 19 0.1719 1.8450000000000002 125.322 41.262
283 18 19 0.1334 5.139 125.421 43.203
284 18 19 0.1309 5.4030000000000005 126.008 41.529
285 18 25 0.1349 6.851 123.874 42.436
286 18 25 0.1464 6.205 123.892 40.787
287 18 25 0.1638 5.061 122.445 43.195
288 18 25 0.1655 5.145 121.916 41.482
289 19 4 -0.2457 2.6399999999999997 125.638 79.945
290 19 36 -0.4193 3.766 124.744 79.808
291 19 4 -0.0957 5.103 125.154 80.142
292 19 4 -0.218 5.93 123.916 79.849
293 19 4 -0.3149 4.979 122.764 80.151
294 19 1 0.4689 3.613 123.365 79.932
295 19 49 -0.5331 2.561 122.748 79.934
296 19 19 0.1496 2.9450000000000003 126.659 79.711
297 19 19 0.1612 2.2640000000000002 125.58 80.971
298 19 19 0.1719 1.8450000000000002 125.322 79.262
299 19 19 0.1334 5.139 125.421 81.203
300 19 19 0.1309 5.4030000000000005 126.008 79.529
301 19 25 0.1349 6.851 123.874 80.436
302 19 25 0.1464 6.205 123.892 78.787
303 19 25 0.1638 5.061 122.445 81.195
304 19 25 0.1655 5.145 121.916 79.482
305 20 4 -0.2457 2.6399999999999997 125.638 117.945
306 20 36 -0.4193 3.766 124.744 117.808
307 20 4 -0.0957 5.103 125.154 118.142
308 20 4 -0.218 5.93 123.916 117.849
309 20 4 -0.3149 4.979 122.764 118.151
310 20 1 0.4689 3.613 123.365 117.932
311 20 49 -0.5331 2.561 122.748 117.934
312 20 19 0.1496 2.9450000000000003 126.659 117.711
313 20 19 0.1612 2.2640000000000002 125.58 118.971
314 20 19 0.1719 1.8450000000000002 125.322 117.262
315 20 19 0.1334 5.139 125.421 119.203
316 20 19 0.1309 5.4030000000000005 126.008 117.529
317 20 25 0.1349 6.851 123.874 118.436
318 20 25 0.1464 6.205 123.892 116.787
319 20 25 0.1638 5.061 122.445 119.195
320 20 25 0.1655 5.145 121.916 117.482
321 21 4 -0.2457 17.64 5.638 3.945
322 21 36 -0.4193 18.766 4.744 3.808
323 21 4 -0.0957 20.103 5.154 4.142
324 21 4 -0.218 20.93 3.916 3.849
325 21 4 -0.3149 19.979 2.7640000000000002 4.151
326 21 1 0.4689 18.613 3.365 3.932
327 21 49 -0.5331 17.561 2.748 3.934
328 21 19 0.1496 17.945 6.659 3.711
329 21 19 0.1612 17.264 5.58 4.971
330 21 19 0.1719 16.845 5.322 3.262
331 21 19 0.1334 20.139 5.421 5.203
332 21 19 0.1309 20.403 6.008 3.529
333 21 25 0.1349 21.851 3.874 4.436
334 21 25 0.1464 21.205 3.892 2.787
335 21 25 0.1638 20.061 2.4450000000000003 5.195
336 21 25 0.1655 20.145 1.916 3.482
337 22 4 -0.2457 17.64 5.638 41.945
338 22 36 -0.4193 18.766 4.744 41.808
339 22 4 -0.0957 20.103 5.154 42.142
340 22 4 -0.218 20.93 3.916 41.849
341 22 4 -0.3149 19.979 2.7640000000000002 42.151
342 22 1 0.4689 18.613 3.365 41.932
343 22 49 -0.5331 17.561 2.748 41.934
344 22 19 0.1496 17.945 6.659 41.711
345 22 19 0.1612 17.264 5.58 42.971
346 22 19 0.1719 16.845 5.322 41.262
347 22 19 0.1334 20.139 5.421 43.203
348 22 19 0.1309 20.403 6.008 41.529
349 22 25 0.1349 21.851 3.874 42.436
350 22 25 0.1464 21.205 3.892 40.787
351 22 25 0.1638 20.061 2.4450000000000003 43.195
352 22 25 0.1655 20.145 1.916 41.482
353 23 4 -0.2457 17.64 5.638 79.945
354 23 36 -0.4193 18.766 4.744 79.808
355 23 4 -0.0957 20.103 5.154 80.142
356 23 4 -0.218 20.93 3.916 79.849
357 23 4 -0.3149 19.979 2.7640000000000002 80.151
358 23 1 0.4689 18.613 3.365 79.932
359 23 49 -0.5331 17.561 2.748 79.934
360 23 19 0.1496 17.945 6.659 79.711
361 23 19 0.1612 17.264 5.58 80.971
362 23 19 0.1719 16.845 5.322 79.262
363 23 19 0.1334 20.139 5.421 81.203
364 23 19 0.1309 20.403 6.008 79.529
365 23 25 0.1349 21.851 3.874 80.436
366 23 25 0.1464 21.205 3.892 78.787
367 23 25 0.1638 20.061 2.4450000000000003 81.195
368 23 25 0.1655 20.145 1.916 79.482
369 24 4 -0.2457 17.64 5.638 117.945
370 24 36 -0.4193 18.766 4.744 117.808
371 24 4 -0.0957 20.103 5.154 118.142
372 24 4 -0.218 20.93 3.916 117.849
373 24 4 -0.3149 19.979 2.7640000000000002 118.151
374 24 1 0.4689 18.613 3.365 117.932
375 24 49 -0.5331 17.561 2.748 117.934
376 24 19 0.1496 17.945 6.659 117.711
377 24 19 0.1612 17.264 5.58 118.971
378 24 19 0.1719 16.845 5.322 117.262
379 24 19 0.1334 20.139 5.421 119.203
380 24 19 0.1309 20.403 6.008 117.529
381 24 25 0.1349 21.851 3.874 118.436
382 24 25 0.1464 21.205 3.892 116.787
383 24 25 0.1638 20.061 2.4450000000000003 119.195
384 24 25 0.1655 20.145 1.916 117.482
385 25 4 -0.2457 17.64 35.638 3.945
386 25 36 -0.4193 18.766 34.744 3.808
387 25 4 -0.0957 20.103 35.153999999999996 4.142
388 25 4 -0.218 20.93 33.916 3.849
389 25 4 -0.3149 19.979 32.764 4.151
390 25 1 0.4689 18.613 33.365 3.932
391 25 49 -0.5331 17.561 32.748 3.934
392 25 19 0.1496 17.945 36.659 3.711
393 25 19 0.1612 17.264 35.58 4.971
394 25 19 0.1719 16.845 35.322 3.262
395 25 19 0.1334 20.139 35.421 5.203
396 25 19 0.1309 20.403 36.008 3.529
397 25 25 0.1349 21.851 33.874 4.436
398 25 25 0.1464 21.205 33.892 2.787
399 25 25 0.1638 20.061 32.445 5.195
400 25 25 0.1655 20.145 31.916 3.482
401 26 4 -0.2457 17.64 35.638 41.945
402 26 36 -0.4193 18.766 34.744 41.808
403 26 4 -0.0957 20.103 35.153999999999996 42.142
404 26 4 -0.218 20.93 33.916 41.849
405 26 4 -0.3149 19.979 32.764 42.151
406 26 1 0.4689 18.613 33.365 41.932
407 26 49 -0.5331 17.561 32.748 41.934
408 26 19 0.1496 17.945 36.659 41.711
409 26 19 0.1612 17.264 35.58 42.971
410 26 19 0.1719 16.845 35.322 41.262
411 26 19 0.1334 20.139 35.421 43.203
412 26 19 0.1309 20.403 36.008 41.529
413 26 25 0.1349 21.851 33.874 42.436
414 26 25 0.1464 21.205 33.892 40.787
415 26 25 0.1638 20.061 32.445 43.195
416 26 25 0.1655 20.145 31.916 41.482
417 27 4 -0.2457 17.64 35.638 79.945
418 27 36 -0.4193 18.766 34.744 79.808
419 27 4 -0.0957 20.103 35.153999999999996 80.142
420 27 4 -0.218 20.93 33.916 79.849
421 27 4 -0.3149 19.979 32.764 80.151
422 27 1 0.4689 18.613 33.365 79.932
423 27 49 -0.5331 17.561 32.748 79.934
424 27 19 0.1496 17.945 36.659 79.711
425 27 19 0.1612 17.264 35.58 80.971
426 27 19 0.1719 16.845 35.322 79.262
427 27 19 0.1334 20.139 35.421 81.203
428 27 19 0.1309 20.403 36.008 79.529
429 27 25 0.1349 21.851 33.874 80.436
430 27 25 0.1464 21.205 33.892 78.787
431 27 25 0.1638 20.061 32.445 81.195
432 27 25 0.1655 20.145 31.916 79.482
433 28 4 -0.2457 17.64 35.638 117.945
434 28 36 -0.4193 18.766 34.744 117.808
435 28 4 -0.0957 20.103 35.153999999999996 118.142
436 28 4 -0.218 20.93 33.916 117.849
437 28 4 -0.3149 19.979 32.764 118.151
438 28 1 0.4689 18.613 33.365 117.932
439 28 49 -0.5331 17.561 32.748 117.934
440 28 19 0.1496 17.945 36.659 117.711
441 28 19 0.1612 17.264 35.58 118.971
442 28 19 0.1719 16.845 35.322 117.262
443 28 19 0.1334 20.139 35.421 119.203
444 28 19 0.1309 20.403 36.008 117.529
445 28 25 0.1349 21.851 33.874 118.436
446 28 25 0.1464 21.205 33.892 116.787
447 28 25 0.1638 20.061 32.445 119.195
448 28 25 0.1655 20.145 31.916 117.482
449 29 4 -0.2457 17.64 65.638 3.945
450 29 36 -0.4193 18.766 64.744 3.808
451 29 4 -0.0957 20.103 65.154 4.142
452 29 4 -0.218 20.93 63.916 3.849
453 29 4 -0.3149 19.979 62.764 4.151
454 29 1 0.4689 18.613 63.365 3.932
455 29 49 -0.5331 17.561 62.748 3.934
456 29 19 0.1496 17.945 66.659 3.711
457 29 19 0.1612 17.264 65.58 4.971
458 29 19 0.1719 16.845 65.322 3.262
459 29 19 0.1334 20.139 65.421 5.203
460 29 19 0.1309 20.403 66.008 3.529
461 29 25 0.1349 21.851 63.874 4.436
462 29 25 0.1464 21.205 63.892 2.787
463 29 25 0.1638 20.061 62.445 5.195
464 29 25 0.1655 20.145 61.916 3.482
465 30 4 -0.2457 17.64 65.638 41.945
466 30 36 -0.4193 18.766 64.744 41.808
467 30 4 -0.0957 20.103 65.154 42.142
468 30 4 -0.218 20.93 63.916 41.849
469 30 4 -0.3149 19.979 62.764 42.151
470 30 1 0.4689 18.613 63.365 41.932
471 30 49 -0.5331 17.561 62.748 41.934
472 30 19 0.1496 17.945 66.659 41.711
473 30 19 0.1612 17.264 65.58 42.971
474 30 19 0.1719 16.845 65.322 41.262
475 30 19 0.1334 20.139 65.421 43.203
476 30 19 0.1309 20.403 66.008 41.529
477 30 25 0.1349 21.851 63.874 42.436
478 30 25 0.1464 21.205 63.892 40.787
479 30 25 0.1638 20.061 62.445 43.195
480 30 25 0.1655 20.145 61.916 41.482
481 31 4 -0.2457 17.64 65.638 79.945
482 31 36 -0.4193 18.766 64.744 79.808
483 31 4 -0.0957 20.103 65.154 80.142
484 31 4 -0.218 20.93 63.916 79.849
485 31 4 -0.3149 19.979 62.764 80.151
486 31 1 0.4689 18.613 63.365 79.932
487 31 49 -0.5331 17.561 62.748 79.934
488 31 19 0.1496 17.945 66.659 79.711
489 31 19 0.1612 17.264 65.58 80.971
490 31 19 0.1719 16.845 65.322 79.262
491 31 19 0.1334 20.139 65.421 81.203
492 31 19 0.1309 20.403 66.008 79.529
493 31 25 0.1349 21.851 63.874 80.436
494 31 25 0.1464 21.205 63.892 78.787
495 31 25 0.1638 20.061 62.445 81.195
496 31 25 0.1655 20.145 61.916 79.482
497 32 4 -0.2457 17.64 65.638 117.945
498 32 36 -0.4193 18.766 64.744 117.808
499 32 4 -0.0957 20.103 65.154 118.142
500 32 4 -0.218 20.93 63.916 117.849
501 32 4 -0.3149 19.979 62.764 118.151
502 32 1 0.4689 18.613 63.365 117.932
503 32 49 -0.5331 17.561 62.748 117.934
504 32 19 0.1496 17.945 66.659 117.711
505 32 19 0.1612 17.264 65.58 118.971
506 32 19 0.1719 16.845 65.322 117.262
507 32 19 0.1334 20.139 65.421 119.203
508 32 19 0.1309 20.403 66.008 117.529
509 32 25 0.1349 21.851 63.874 118.436
510 32 25 0.1464 21.205 63.892 116.787
511 32 25 0.1638 20.061 62.445 119.195
512 32 25 0.1655 20.145 61.916 117.482
513 33 4 -0.2457 17.64 95.638 3.945
514 33 36 -0.4193 18.766 94.744 3.808
515 33 4 -0.0957 20.103 95.154 4.142
516 33 4 -0.218 20.93 93.916 3.849
517 33 4 -0.3149 19.979 92.764 4.151
518 33 1 0.4689 18.613 93.365 3.932
519 33 49 -0.5331 17.561 92.748 3.934
520 33 19 0.1496 17.945 96.659 3.711
521 33 19 0.1612 17.264 95.58 4.971
522 33 19 0.1719 16.845 95.322 3.262
523 33 19 0.1334 20.139 95.421 5.203
524 33 19 0.1309 20.403 96.008 3.529
525 33 25 0.1349 21.851 93.874 4.436
526 33 25 0.1464 21.205 93.892 2.787
527 33 25 0.1638 20.061 92.445 5.195
528 33 25 0.1655 20.145 91.916 3.482
529 34 4 -0.2457 17.64 95.638 41.945
530 34 36 -0.4193 18.766 94.744 41.808
531 34 4 -0.0957 20.103 95.154 42.142
532 34 4 -0.218 20.93 93.916 41.849
533 34 4 -0.3149 19.979 92.764 42.151
534 34 1 0.4689 18.613 93.365 41.932
535 34 49 -0.5331 17.561 92.748 41.934
536 34 19 0.1496 17.945 96.659 41.711
537 34 19 0.1612 17.264 95.58 42.971
538 34 19 0.1719 16.845 95.322 41.262
539 34 19 0.1334 20.139 95.421 43.203
540 34 19 0.1309 20.403 96.008 41.529
541 34 25 0.1349 21.851 93.874 42.436
542 34 25 0.1464 21.205 93.892 40.787
543 34 25 0.1638 20.061 92.445 43.195
544 34 25 0.1655 20.145 91.916 41.482
545 35 4 -0.2457 17.64 95.638 79.945
546 35 36 -0.4193 18.766 94.744 79.808
547 35 4 -0.0957 20.103 95.154 80.142
548 35 4 -0.218 20.93 93.916 79.849
549 35 4 -0.3149 19.979 92.764 80.151
550 35 1 0.4689 18.613 93.365 79.932
551 35 49 -0.5331 17.561 92.748 79.934
552 35 19 0.1496 17.945 96.659 79.711
553 35 19 0.1612 17.264 95.58 80.971
554 35 19 0.1719 16.845 95.322 79.262
555 35 19 0.1334 20.139 95.421 81.203
556 35 19 0.1309 20.403 96.008 79.529
557 35 25 0.1349 21.851 93.874 80.436
558 35 25 0.1464 21.205 93.892 78.787
559 35 25 0.1638 20.061 92.445 81.195
560 35 25 0.1655 20.145 91.916 79.482
561 36 4 -0.2457 17.64 95.638 117.945
562 36 36 -0.4193 18.766 94.744 117.808
563 36 4 -0.0957 20.103 95.154 118.142
564 36 4 -0.218 20.93 93.916 117.849
565 36 4 -0.3149 19.979 92.764 118.151
566 36 1 0.4689 18.613 93.365 117.932
567 36 49 -0.5331 17.561 92.748 117.934
568 36 19 0.1496 17.945 96.659 117.711
569 36 19 0.1612 17.264 95.58 118.971
570 36 19 0.1719 16.845 95.322 117.262
571 36 19 0.1334 20.139 95.421 119.203
572 36 19 0.1309 20.403 96.008 117.529
573 36 25 0.1349 21.851 93.874 118.436
574 36 25 0.1464 21.205 93.892 116.787
575 36 25 0.1638 20.061 92.445 119.195
576 36 25 0.1655 20.145 91.916 117.482
577 37 4 -0.2457 17.64 125.638 3.945
578 37 36 -0.4193 18.766 124.744 3.808
579 37 4 -0.0957 20.103 125.154 4.142
580 37 4 -0.218 20.93 123.916 3.849
581 37 4 -0.3149 19.979 122.764 4.151
582 37 1 0.4689 18.613 123.365 3.932
583 37 49 -0.5331 17.561 122.748 3.934
584 37 19 0.1496 17.945 126.659 3.711
585 37 19 0.1612 17.264 125.58 4.971
586 37 19 0.1719 16.845 125.322 3.262
587 37 19 0.1334 20.139 125.421 5.203
588 37 19 0.1309 20.403 126.008 3.529
589 37 25 0.1349 21.851 123.874 4.436
590 37 25 0.1464 21.205 123.892 2.787
591 37 25 0.1638 20.061 122.445 5.195
592 37 25 0.1655 20.145 121.916 3.482
593 38 4 -0.2457 17.64 125.638 41.945
594 38 36 -0.4193 18.766 124.744 41.808
595 38 4 -0.0957 20.103 125.154 42.142
596 38 4 -0.218 20.93 123.916 41.849
597 38 4 -0.3149 19.979 122.764 42.151
598 38 1 0.4689 18.613 123.365 41.932
599 38 49 -0.5331 17.561 122.748 41.934
600 38 19 0.1496 17.945 126.659 41.711
601 38 19 0.1612 17.264 125.58 42.971
602 38 19 0.1719 16.845 125.322 41.262
603 38 19 0.1334 20.139 125.421 43.203
604 38 19 0.1309 20.403 126.008 41.529
605 38 25 0.1349 21.851 123.874 42.436
606 38 25 0.1464 21.205 123.892 40.787
607 38 25 0.1638 20.061 122.445 43.195
608 38 25 0.1655 20.145 121.916 41.482
609 39 4 -0.2457 17.64 125.638 79.945
610 39 36 -0.4193 18.766 124.744 79.808
611 39 4 -0.0957 20.103 125.154 80.142
612 39 4 -0.218 20.93 123.916 79.849
613 39 4 -0.3149 19.979 122.764 80.151
614 39 1 0.4689 18.613 123.365 79.932
615 39 49 -0.5331 17.561 122.748 79.934
616 39 19 0.1496 17.945 126.659 79.711
617 39 19 0.1612 17.264 125.58 80.971
618 39 19 0.1719 16.845 125.322 79.262
619 39 19 0.1334 20.139 125.421 81.203
620 39 19 0.1309 20.403 126.008 79.529
621 39 25 0.1349 21.851 123.874 80.436
622 39 25 0.1464 21.205 123.892 78.787
623 39 25 0.1638 20.061 122.445 81.195
624 39 25 0.1655 20.145 121.916 79.482
625 40 4 -0.2457 17.64 125.638 117.945
626 40 36 -0.4193 18.766 124.744 117.808
627 40 4 -0.0957 20.103 125.154 118.142
628 40 4 -0.218 20.93 123.916 117.849
629 40 4 -0.3149 19.979 122.764 118.151
630 40 1 0.4689 18.613 123.365 117.932
631 40 49 -0.5331 17.561 122.748 117.934
632 40 19 0.1496 17.945 126.659 117.711
633 40 19 0.1612 17.264 125.58 118.971
634 40 19 0.1719 16.845 125.322 117.262
635 40 19 0.1334 20.139 125.421 119.203
636 40 19 0.1309 20.403 126.008 117.529
637 40 25 0.1349 21.851 123.874 118.436
638 40 25 0.1464 21.205 123.892 116.787
639 40 25 0.1638 20.061 122.445 119.195
640 40 25 0.1655 20.145 121.916 117.482
641 41 4 -0.2457 32.64 5.638 3.945
642 41 36 -0.4193 33.766 4.744 3.808
643 41 4 -0.0957 35.103 5.154 4.142
644 41 4 -0.218 35.93 3.916 3.849
645 41 4 -0.3149 34.979 2.7640000000000002 4.151
646 41 1 0.4689 33.613 3.365 3.932
647 41 49 -0.5331 32.561 2.748 3.934
648 41 19 0.1496 32.945 6.659 3.711
649 41 19 0.1612 32.264 5.58 4.971
650 41 19 0.1719 31.845 5.322 3.262
651 41 19 0.1334 35.139 5.421 5.203
652 41 19 0.1309 35.403 6.008 3.529
653 41 25 0.1349 36.851 3.874 4.436
654 41 25 0.1464 36.205 3.892 2.787
655 41 25 0.1638 35.061 2.4450000000000003 5.195
656 41 25 0.1655 35.145 1.916 3.482
657 42 4 -0.2457 32.64 5.638 41.945
658 42 36 -0.4193 33.766 4.744 41.808
659 42 4 -0.0957 35.103 5.154 42.142
660 42 4 -0.218 35.93 3.916 41.849
661 42 4 -0.3149 34.979 2.7640000000000002 42.151
662 42 1 0.4689 33.613 3.365 41.932
663 42 49 -0.5331 32.561 2.748 41.934
664 42 19 0.1496 32.945 6.659 41.711
665 42 19 0.1612 32.264 5.58 42.971
666 42 19 0.1719 31.845 5.322 41.262
667 42 19 0.1334 35.139 5.421 43.203
668 42 19 0.1309 35.403 6.008 41.529
669 42 25 0.1349 36.851 3.874 42.436
670 42 25 0.1464 36.205 3.892 40.787
671 42 25 0.1638 35.061 2.4450000000000003 43.195
672 42 25 0.1655 35.145 1.916 41.482
673 43 4 -0.2457 32.64 5.638 79.945
674 43 36 -0.4193 33.766 4.744 79.808
675 43 4 -0.0957 35.103 5.154 80.142
676 43 4 -0.218 35.93 3.916 79.849
677 43 4 -0.3149 34.979 2.7640000000000002 80.151
678 43 1 0.4689 33.613 3.365 79.932
679 43 49 -0.5331 32.561 2.748 79.934
680 43 19 0.1496 32.945 6.659 79.711
681 43 19 0.1612 32.264 5.58 80.971
682 43 19 0.1719 31.845 5.322 79.262
683 43 19 0.1334 35.139 5.421 81.203
684 43 19 0.1309 35.403 6.008 79.529
685 43 25 0.1349 36.851 3.874 80.436
686 43 25 0.1464 36.205 3.892 78.787
687 43 25 0.1638 35.061 2.4450000000000003 81.195
688 43 25 0.1655 35.145 1.916 79.482
689 44 4 -0.2457 32.64 5.638 117.945
690 44 36 -0.4193 33.766 4.744 117.808
691 44 4 -0.0957 35.103 5.154 118.142
692 44 4 -0.218 35.93 3.916 117.849
693 44 4 -0.3149 34.979 2.7640000000000002 118.151
694 44 1 0.4689 33.613 3.365 117.932
695 44 49 -0.5331 32.561 2.748 117.934
696 44 19 0.1496 32.945 6.659 117.711
697 44 19 0.1612 32.264 5.58 118.971
698 44 19 0.1719 31.845 5.322 117.262
699 44 19 0.1334 35.139 5.421 119.203
700 44 19 0.1309 35.403 6.008 117.529
701 44 25 0.1349 36.851 3.874 118.436
702 44 25 0.1464 36.205 3.892 116.787
703 44 25 0.1638 35.061 2.4450000000000003 119.195
704 44 25 0.1655 35.145 1.916 117.482
705 45 4 -0.2457 32.64 35.638 3.945
706 45 36 -0.4193 33.766 34.744 3.808
707 45 4 -0.0957 35.103 35.153999999999996 4.142
708 45 4 -0.218 35.93 33.916 3.849
709 45 4 -0.3149 34.979 32.764 4.151
710 45 1 0.4689 33.613 33.365 3.932
711 45 49 -0.5331 32.561 32.748 3.934
712 45 19 0.1496 32.945 36.659 3.711
713 45 19 0.1612 32.264 35.58 4.971
714 45 19 0.1719 31.845 35.322 3.262
715 45 19 0.1334 35.139 35.421 5.203
716 45 19 0.1309 35.403 36.008 3.529
717 45 25 0.1349 36.851 33.874 4.436
718 45 25 0.1464 36.205 33.892 2.787
719 45 25 0.1638 35.061 32.445 5.195
720 45 25 0.1655 35.145 31.916 3.482
721 46 4 -0.2457 32.64 35.638 41.945
722 46 36 -0.4193 33.766 34.744 41.808
723 46 4 -0.0957 35.103 35.153999999999996 42.142
724 46 4 -0.218 35.93 33.916 41.849
725 46 4 -0.3149 34.979 32.764 42.151
726 46 1 0.4689 33.613 33.365 41.932
727 46 49 -0.5331 32.561 32.748 41.934
728 46 19 0.1496 32.945 36.659 41.711