LAMMPS Description

     3610  atoms
     3610  bonds
     6840  angles
     9310  dihedrals
     380  impropers

     71  atom types
     807  bond types
     4248  angle types
     641  dihedral types
     38  improper types

  0.0 285 xlo xhi
  0.0 200 ylo yhi
  0.0 200 zlo zhi

Masses

1 12.01  # c
2 12.01  # c1
3 12.01  # c2
4 12.01  # c3
5 12.01  # ca
6 12.01  # cp
7 12.01  # cq
8 12.01  # cc
9 12.01  # cd
10 12.01  # ce
11 12.01  # cf
12 12.01  # cg
13 12.01  # ch
14 12.01  # cx
15 12.01  # cy
16 12.01  # cu
17 12.01  # cv
18 12.01  # cz
19 1.008  # h1
20 1.008  # h2
21 1.008  # h3
22 1.008  # h4
23 1.008  # h5
24 1.008  # ha
25 1.008  # hc
26 1.008  # hn
27 1.008  # ho
28 1.008  # hp
29 1.008  # hs
30 1.008  # hw
31 1.008  # hx
32 19.00  # f
33 35.45  # cl
34 79.90  # br
35 126.9  # i
36 14.01  # n
37 14.01  # n1
38 14.01  # n2
39 14.01  # n3
40 14.01  # n4
41 14.01  # na
42 14.01  # nb
43 14.01  # nc
44 14.01  # nd
45 14.01  # ne
46 14.01  # nf
47 14.01  # nh
48 14.01  # no
49 16.00  # o
50 16.00  # oh
51 16.00  # os
52 16.00  # ow
53 30.97  # p2
54 30.97  # p3
55 30.97  # p4
56 30.97  # p5
57 30.97  # pb
58 30.97  # pc
59 30.97  # pd
60 30.97  # pe
61 30.97  # pf
62 30.97  # px
63 30.97  # py
64 32.06  # s
65 32.06  # s2
66 32.06  # s4
67 32.06  # s6
68 32.06  # sh
69 32.06  # ss
70 32.06  # sx
71 32.06  # sy

Atoms  # full

1 1 4 -0.4161 5.068 3.915 4.025
2 1 4 -0.041 6.584 3.976 3.994
3 1 36 -0.4603 7.087 4.074 2.638
4 1 4 -0.0909 7.309 5.333 1.976
5 1 4 -0.2218 7.448 4.943 0.5169999999999999
6 1 4 -0.3187 8.01 3.527 0.5659999999999998
7 1 1 0.4752 7.452999999999999 2.988 1.859
8 1 49 -0.5417 7.394 1.81 2.169
9 1 25 0.1549 4.711 3.83 5.056
10 1 25 0.1801 4.699 3.05 3.4619999999999997
11 1 25 0.1636 4.627 4.814 3.582
12 1 19 0.1455 6.989 3.067 4.452
13 1 19 0.1216 6.952 4.835 4.566
14 1 19 0.129 8.23 5.774 2.371
15 1 19 0.1243 6.468999999999999 6.013999999999999 2.142
16 1 25 0.1315 8.077 5.633 -0.04999999999999982
17 1 25 0.1416 6.458 4.924 0.04400000000000004
18 1 25 0.1609 9.103 3.5300000000000002 0.6259999999999999
19 1 25 0.1622 7.678 2.9299999999999997 -0.2869999999999999
20 2 4 -0.4161 5.068 3.915 104.025
21 2 4 -0.041 6.584 3.976 103.994
22 2 36 -0.4603 7.087 4.074 102.638
23 2 4 -0.0909 7.309 5.333 101.976
24 2 4 -0.2218 7.448 4.943 100.517
25 2 4 -0.3187 8.01 3.527 100.566
26 2 1 0.4752 7.452999999999999 2.988 101.859
27 2 49 -0.5417 7.394 1.81 102.169
28 2 25 0.1549 4.711 3.83 105.056
29 2 25 0.1801 4.699 3.05 103.462
30 2 25 0.1636 4.627 4.814 103.582
31 2 19 0.1455 6.989 3.067 104.452
32 2 19 0.1216 6.952 4.835 104.566
33 2 19 0.129 8.23 5.774 102.371
34 2 19 0.1243 6.468999999999999 6.013999999999999 102.142
35 2 25 0.1315 8.077 5.633 99.95
36 2 25 0.1416 6.458 4.924 100.044
37 2 25 0.1609 9.103 3.5300000000000002 100.626
38 2 25 0.1622 7.678 2.9299999999999997 99.713
39 3 4 -0.4161 5.068 43.915 4.025
40 3 4 -0.041 6.584 43.976 3.994
41 3 36 -0.4603 7.087 44.074 2.638
42 3 4 -0.0909 7.309 45.333 1.976
43 3 4 -0.2218 7.448 44.943 0.5169999999999999
44 3 4 -0.3187 8.01 43.527 0.5659999999999998
45 3 1 0.4752 7.452999999999999 42.988 1.859
46 3 49 -0.5417 7.394 41.81 2.169
47 3 25 0.1549 4.711 43.83 5.056
48 3 25 0.1801 4.699 43.05 3.4619999999999997
49 3 25 0.1636 4.627 44.814 3.582
50 3 19 0.1455 6.989 43.067 4.452
51 3 19 0.1216 6.952 44.835 4.566
52 3 19 0.129 8.23 45.774 2.371
53 3 19 0.1243 6.468999999999999 46.014 2.142
54 3 25 0.1315 8.077 45.633 -0.04999999999999982
55 3 25 0.1416 6.458 44.924 0.04400000000000004
56 3 25 0.1609 9.103 43.53 0.6259999999999999
57 3 25 0.1622 7.678 42.93 -0.2869999999999999
58 4 4 -0.4161 5.068 43.915 104.025
59 4 4 -0.041 6.584 43.976 103.994
60 4 36 -0.4603 7.087 44.074 102.638
61 4 4 -0.0909 7.309 45.333 101.976
62 4 4 -0.2218 7.448 44.943 100.517
63 4 4 -0.3187 8.01 43.527 100.566
64 4 1 0.4752 7.452999999999999 42.988 101.859
65 4 49 -0.5417 7.394 41.81 102.169
66 4 25 0.1549 4.711 43.83 105.056
67 4 25 0.1801 4.699 43.05 103.462
68 4 25 0.1636 4.627 44.814 103.582
69 4 19 0.1455 6.989 43.067 104.452
70 4 19 0.1216 6.952 44.835 104.566
71 4 19 0.129 8.23 45.774 102.371
72 4 19 0.1243 6.468999999999999 46.014 102.142
73 4 25 0.1315 8.077 45.633 99.95
74 4 25 0.1416 6.458 44.924 100.044
75 4 25 0.1609 9.103 43.53 100.626
76 4 25 0.1622 7.678 42.93 99.713
77 5 4 -0.4161 5.068 83.915 4.025
78 5 4 -0.041 6.584 83.976 3.994
79 5 36 -0.4603 7.087 84.074 2.638
80 5 4 -0.0909 7.309 85.333 1.976
81 5 4 -0.2218 7.448 84.943 0.5169999999999999
82 5 4 -0.3187 8.01 83.527 0.5659999999999998
83 5 1 0.4752 7.452999999999999 82.988 1.859
84 5 49 -0.5417 7.394 81.81 2.169
85 5 25 0.1549 4.711 83.83 5.056
86 5 25 0.1801 4.699 83.05 3.4619999999999997
87 5 25 0.1636 4.627 84.814 3.582
88 5 19 0.1455 6.989 83.067 4.452
89 5 19 0.1216 6.952 84.835 4.566
90 5 19 0.129 8.23 85.774 2.371
91 5 19 0.1243 6.468999999999999 86.014 2.142
92 5 25 0.1315 8.077 85.633 -0.04999999999999982
93 5 25 0.1416 6.458 84.924 0.04400000000000004
94 5 25 0.1609 9.103 83.53 0.6259999999999999
95 5 25 0.1622 7.678 82.93 -0.2869999999999999
96 6 4 -0.4161 5.068 83.915 104.025
97 6 4 -0.041 6.584 83.976 103.994
98 6 36 -0.4603 7.087 84.074 102.638
99 6 4 -0.0909 7.309 85.333 101.976
100 6 4 -0.2218 7.448 84.943 100.517
101 6 4 -0.3187 8.01 83.527 100.566
102 6 1 0.4752 7.452999999999999 82.988 101.859
103 6 49 -0.5417 7.394 81.81 102.169
104 6 25 0.1549 4.711 83.83 105.056
105 6 25 0.1801 4.699 83.05 103.462
106 6 25 0.1636 4.627 84.814 103.582
107 6 19 0.1455 6.989 83.067 104.452
108 6 19 0.1216 6.952 84.835 104.566
109 6 19 0.129 8.23 85.774 102.371
110 6 19 0.1243 6.468999999999999 86.014 102.142
111 6 25 0.1315 8.077 85.633 99.95
112 6 25 0.1416 6.458 84.924 100.044
113 6 25 0.1609 9.103 83.53 100.626
114 6 25 0.1622 7.678 82.93 99.713
115 7 4 -0.4161 5.068 123.915 4.025
116 7 4 -0.041 6.584 123.976 3.994
117 7 36 -0.4603 7.087 124.074 2.638
118 7 4 -0.0909 7.309 125.333 1.976
119 7 4 -0.2218 7.448 124.943 0.5169999999999999
120 7 4 -0.3187 8.01 123.527 0.5659999999999998
121 7 1 0.4752 7.452999999999999 122.988 1.859
122 7 49 -0.5417 7.394 121.81 2.169
123 7 25 0.1549 4.711 123.83 5.056
124 7 25 0.1801 4.699 123.05 3.4619999999999997
125 7 25 0.1636 4.627 124.814 3.582
126 7 19 0.1455 6.989 123.067 4.452
127 7 19 0.1216 6.952 124.835 4.566
128 7 19 0.129 8.23 125.774 2.371
129 7 19 0.1243 6.468999999999999 126.014 2.142
130 7 25 0.1315 8.077 125.633 -0.04999999999999982
131 7 25 0.1416 6.458 124.924 0.04400000000000004
132 7 25 0.1609 9.103 123.53 0.6259999999999999
133 7 25 0.1622 7.678 122.93 -0.2869999999999999
134 8 4 -0.4161 5.068 123.915 104.025
135 8 4 -0.041 6.584 123.976 103.994
136 8 36 -0.4603 7.087 124.074 102.638
137 8 4 -0.0909 7.309 125.333 101.976
138 8 4 -0.2218 7.448 124.943 100.517
139 8 4 -0.3187 8.01 123.527 100.566
140 8 1 0.4752 7.452999999999999 122.988 101.859
141 8 49 -0.5417 7.394 121.81 102.169
142 8 25 0.1549 4.711 123.83 105.056
143 8 25 0.1801 4.699 123.05 103.462
144 8 25 0.1636 4.627 124.814 103.582
145 8 19 0.1455 6.989 123.067 104.452
146 8 19 0.1216 6.952 124.835 104.566
147 8 19 0.129 8.23 125.774 102.371
148 8 19 0.1243 6.468999999999999 126.014 102.142
149 8 25 0.1315 8.077 125.633 99.95
150 8 25 0.1416 6.458 124.924 100.044
151 8 25 0.1609 9.103 123.53 100.626
152 8 25 0.1622 7.678 122.93 99.713
153 9 4 -0.4161 5.068 163.915 4.025
154 9 4 -0.041 6.584 163.976 3.994
155 9 36 -0.4603 7.087 164.074 2.638
156 9 4 -0.0909 7.309 165.333 1.976
157 9 4 -0.2218 7.448 164.943 0.5169999999999999
158 9 4 -0.3187 8.01 163.527 0.5659999999999998
159 9 1 0.4752 7.452999999999999 162.988 1.859
160 9 49 -0.5417 7.394 161.81 2.169
161 9 25 0.1549 4.711 163.83 5.056
162 9 25 0.1801 4.699 163.05 3.4619999999999997
163 9 25 0.1636 4.627 164.814 3.582
164 9 19 0.1455 6.989 163.067 4.452
165 9 19 0.1216 6.952 164.835 4.566
166 9 19 0.129 8.23 165.774 2.371
167 9 19 0.1243 6.468999999999999 166.014 2.142
168 9 25 0.1315 8.077 165.633 -0.04999999999999982
169 9 25 0.1416 6.458 164.924 0.04400000000000004
170 9 25 0.1609 9.103 163.53 0.6259999999999999
171 9 25 0.1622 7.678 162.93 -0.2869999999999999
172 10 4 -0.4161 5.068 163.915 104.025
173 10 4 -0.041 6.584 163.976 103.994
174 10 36 -0.4603 7.087 164.074 102.638
175 10 4 -0.0909 7.309 165.333 101.976
176 10 4 -0.2218 7.448 164.943 100.517
177 10 4 -0.3187 8.01 163.527 100.566
178 10 1 0.4752 7.452999999999999 162.988 101.859
179 10 49 -0.5417 7.394 161.81 102.169
180 10 25 0.1549 4.711 163.83 105.056
181 10 25 0.1801 4.699 163.05 103.462
182 10 25 0.1636 4.627 164.814 103.582
183 10 19 0.1455 6.989 163.067 104.452
184 10 19 0.1216 6.952 164.835 104.566
185 10 19 0.129 8.23 165.774 102.371
186 10 19 0.1243 6.468999999999999 166.014 102.142
187 10 25 0.1315 8.077 165.633 99.95
188 10 25 0.1416 6.458 164.924 100.044
189 10 25 0.1609 9.103 163.53 100.626
190 10 25 0.1622 7.678 162.93 99.713
191 11 4 -0.4161 15.068 3.915 4.025
192 11 4 -0.041 16.584 3.976 3.994
193 11 36 -0.4603 17.087 4.074 2.638
194 11 4 -0.0909 17.309 5.333 1.976
195 11 4 -0.2218 17.448 4.943 0.5169999999999999
196 11 4 -0.3187 18.009999999999998 3.527 0.5659999999999998
197 11 1 0.4752 17.453 2.988 1.859
198 11 49 -0.5417 17.394 1.81 2.169
199 11 25 0.1549 14.711 3.83 5.056
200 11 25 0.1801 14.699 3.05 3.4619999999999997
201 11 25 0.1636 14.627 4.814 3.582
202 11 19 0.1455 16.989 3.067 4.452
203 11 19 0.1216 16.951999999999998 4.835 4.566
204 11 19 0.129 18.23 5.774 2.371
205 11 19 0.1243 16.469 6.013999999999999 2.142
206 11 25 0.1315 18.076999999999998 5.633 -0.04999999999999982
207 11 25 0.1416 16.458 4.924 0.04400000000000004
208 11 25 0.1609 19.103 3.5300000000000002 0.6259999999999999
209 11 25 0.1622 17.678 2.9299999999999997 -0.2869999999999999
210 12 4 -0.4161 15.068 3.915 104.025
211 12 4 -0.041 16.584 3.976 103.994
212 12 36 -0.4603 17.087 4.074 102.638
213 12 4 -0.0909 17.309 5.333 101.976
214 12 4 -0.2218 17.448 4.943 100.517
215 12 4 -0.3187 18.009999999999998 3.527 100.566
216 12 1 0.4752 17.453 2.988 101.859
217 12 49 -0.5417 17.394 1.81 102.169
218 12 25 0.1549 14.711 3.83 105.056
219 12 25 0.1801 14.699 3.05 103.462
220 12 25 0.1636 14.627 4.814 103.582
221 12 19 0.1455 16.989 3.067 104.452
222 12 19 0.1216 16.951999999999998 4.835 104.566
223 12 19 0.129 18.23 5.774 102.371
224 12 19 0.1243 16.469 6.013999999999999 102.142
225 12 25 0.1315 18.076999999999998 5.633 99.95
226 12 25 0.1416 16.458 4.924 100.044
227 12 25 0.1609 19.103 3.5300000000000002 100.626
228 12 25 0.1622 17.678 2.9299999999999997 99.713
229 13 4 -0.4161 15.068 43.915 4.025
230 13 4 -0.041 16.584 43.976 3.994
231 13 36 -0.4603 17.087 44.074 2.638
232 13 4 -0.0909 17.309 45.333 1.976
233 13 4 -0.2218 17.448 44.943 0.5169999999999999
234 13 4 -0.3187 18.009999999999998 43.527 0.5659999999999998
235 13 1 0.4752 17.453 42.988 1.859
236 13 49 -0.5417 17.394 41.81 2.169
237 13 25 0.1549 14.711 43.83 5.056
238 13 25 0.1801 14.699 43.05 3.4619999999999997
239 13 25 0.1636 14.627 44.814 3.582
240 13 19 0.1455 16.989 43.067 4.452
241 13 19 0.1216 16.951999999999998 44.835 4.566
242 13 19 0.129 18.23 45.774 2.371
243 13 19 0.1243 16.469 46.014 2.142
244 13 25 0.1315 18.076999999999998 45.633 -0.04999999999999982
245 13 25 0.1416 16.458 44.924 0.04400000000000004
246 13 25 0.1609 19.103 43.53 0.6259999999999999
247 13 25 0.1622 17.678 42.93 -0.2869999999999999
248 14 4 -0.4161 15.068 43.915 104.025
249 14 4 -0.041 16.584 43.976 103.994
250 14 36 -0.4603 17.087 44.074 102.638
251 14 4 -0.0909 17.309 45.333 101.976
252 14 4 -0.2218 17.448 44.943 100.517
253 14 4 -0.3187 18.009999999999998 43.527 100.566
254 14 1 0.4752 17.453 42.988 101.859
255 14 49 -0.5417 17.394 41.81 102.169
256 14 25 0.1549 14.711 43.83 105.056
257 14 25 0.1801 14.699 43.05 103.462
258 14 25 0.1636 14.627 44.814 103.582
259 14 19 0.1455 16.989 43.067 104.452
260 14 19 0.1216 16.951999999999998 44.835 104.566
261 14 19 0.129 18.23 45.774 102.371
262 14 19 0.1243 16.469 46.014 102.142
263 14 25 0.1315 18.076999999999998 45.633 99.95
264 14 25 0.1416 16.458 44.924 100.044
265 14 25 0.1609 19.103 43.53 100.626
266 14 25 0.1622 17.678 42.93 99.713
267 15 4 -0.4161 15.068 83.915 4.025
268 15 4 -0.041 16.584 83.976 3.994
269 15 36 -0.4603 17.087 84.074 2.638
270 15 4 -0.0909 17.309 85.333 1.976
271 15 4 -0.2218 17.448 84.943 0.5169999999999999
272 15 4 -0.3187 18.009999999999998 83.527 0.5659999999999998
273 15 1 0.4752 17.453 82.988 1.859
274 15 49 -0.5417 17.394 81.81 2.169
275 15 25 0.1549 14.711 83.83 5.056
276 15 25 0.1801 14.699 83.05 3.4619999999999997
277 15 25 0.1636 14.627 84.814 3.582
278 15 19 0.1455 16.989 83.067 4.452
279 15 19 0.1216 16.951999999999998 84.835 4.566
280 15 19 0.129 18.23 85.774 2.371
281 15 19 0.1243 16.469 86.014 2.142
282 15 25 0.1315 18.076999999999998 85.633 -0.04999999999999982
283 15 25 0.1416 16.458 84.924 0.04400000000000004
284 15 25 0.1609 19.103 83.53 0.6259999999999999
285 15 25 0.1622 17.678 82.93 -0.2869999999999999
286 16 4 -0.4161 15.068 83.915 104.025
287 16 4 -0.041 16.584 83.976 103.994
288 16 36 -0.4603 17.087 84.074 102.638
289 16 4 -0.0909 17.309 85.333 101.976
290 16 4 -0.2218 17.448 84.943 100.517
291 16 4 -0.3187 18.009999999999998 83.527 100.566
292 16 1 0.4752 17.453 82.988 101.859
293 16 49 -0.5417 17.394 81.81 102.169
294 16 25 0.1549 14.711 83.83 105.056
295 16 25 0.1801 14.699 83.05 103.462
296 16 25 0.1636 14.627 84.814 103.582
297 16 19 0.1455 16.989 83.067 104.452
298 16 19 0.1216 16.951999999999998 84.835 104.566
299 16 19 0.129 18.23 85.774 102.371
300 16 19 0.1243 16.469 86.014 102.142
301 16 25 0.1315 18.076999999999998 85.633 99.95
302 16 25 0.1416 16.458 84.924 100.044
303 16 25 0.1609 19.103 83.53 100.626
304 16 25 0.1622 17.678 82.93 99.713
305 17 4 -0.4161 15.068 123.915 4.025
306 17 4 -0.041 16.584 123.976 3.994
307 17 36 -0.4603 17.087 124.074 2.638
308 17 4 -0.0909 17.309 125.333 1.976
309 17 4 -0.2218 17.448 124.943 0.5169999999999999
310 17 4 -0.3187 18.009999999999998 123.527 0.5659999999999998
311 17 1 0.4752 17.453 122.988 1.859
312 17 49 -0.5417 17.394 121.81 2.169
313 17 25 0.1549 14.711 123.83 5.056
314 17 25 0.1801 14.699 123.05 3.4619999999999997
315 17 25 0.1636 14.627 124.814 3.582
316 17 19 0.1455 16.989 123.067 4.452
317 17 19 0.1216 16.951999999999998 124.835 4.566
318 17 19 0.129 18.23 125.774 2.371
319 17 19 0.1243 16.469 126.014 2.142
320 17 25 0.1315 18.076999999999998 125.633 -0.04999999999999982
321 17 25 0.1416 16.458 124.924 0.04400000000000004
322 17 25 0.1609 19.103 123.53 0.6259999999999999
323 17 25 0.1622 17.678 122.93 -0.2869999999999999
324 18 4 -0.4161 15.068 123.915 104.025
325 18 4 -0.041 16.584 123.976 103.994
326 18 36 -0.4603 17.087 124.074 102.638
327 18 4 -0.0909 17.309 125.333 101.976
328 18 4 -0.2218 17.448 124.943 100.517
329 18 4 -0.3187 18.009999999999998 123.527 100.566
330 18 1 0.4752 17.453 122.988 101.859
331 18 49 -0.5417 17.394 121.81 102.169
332 18 25 0.1549 14.711 123.83 105.056
333 18 25 0.1801 14.699 123.05 103.462
334 18 25 0.1636 14.627 124.814 103.582
335 18 19 0.1455 16.989 123.067 104.452
336 18 19 0.1216 16.951999999999998 124.835 104.566
337 18 19 0.129 18.23 125.774 102.371
338 18 19 0.1243 16.469 126.014 102.142
339 18 25 0.1315 18.076999999999998 125.633 99.95
340 18 25 0.1416 16.458 124.924 100.044
341 18 25 0.1609 19.103 123.53 100.626
342 18 25 0.1622 17.678 122.93 99.713
343 19 4 -0.4161 15.068 163.915 4.025
344 19 4 -0.041 16.584 163.976 3.994
345 19 36 -0.4603 17.087 164.074 2.638
346 19 4 -0.0909 17.309 165.333 1.976
347 19 4 -0.2218 17.448 164.943 0.5169999999999999
348 19 4 -0.3187 18.009999999999998 163.527 0.5659999999999998
349 19 1 0.4752 17.453 162.988 1.859
350 19 49 -0.5417 17.394 161.81 2.169
351 19 25 0.1549 14.711 163.83 5.056
352 19 25 0.1801 14.699 163.05 3.4619999999999997
353 19 25 0.1636 14.627 164.814 3.582
354 19 19 0.1455 16.989 163.067 4.452
355 19 19 0.1216 16.951999999999998 164.835 4.566
356 19 19 0.129 18.23 165.774 2.371
357 19 19 0.1243 16.469 166.014 2.142
358 19 25 0.1315 18.076999999999998 165.633 -0.04999999999999982
359 19 25 0.1416 16.458 164.924 0.04400000000000004
360 19 25 0.1609 19.103 163.53 0.6259999999999999
361 19 25 0.1622 17.678 162.93 -0.2869999999999999
362 20 4 -0.4161 15.068 163.915 104.025
363 20 4 -0.041 16.584 163.976 103.994
364 20 36 -0.4603 17.087 164.074 102.638
365 20 4 -0.0909 17.309 165.333 101.976
366 20 4 -0.2218 17.448 164.943 100.517
367 20 4 -0.3187 18.009999999999998 163.527 100.566
368 20 1 0.4752 17.453 162.988 101.859
369 20 49 -0.5417 17.394 161.81 102.169
370 20 25 0.1549 14.711 163.83 105.056
371 20 25 0.1801 14.699 163.05 103.462
372 20 25 0.1636 14.627 164.814 103.582
373 20 19 0.1455 16.989 163.067 104.452
374 20 19 0.1216 16.951999999999998 164.835 104.566
375 20 19 0.129 18.23 165.774 102.371
376 20 19 0.1243 16.469 166.014 102.142
377 20 25 0.1315 18.076999999999998 165.633 99.95
378 20 25 0.1416 16.458 164.924 100.044
379 20 25 0.1609 19.103 163.53 100.626
380 20 25 0.1622 17.678 162.93 99.713
381 21 4 -0.4161 25.068 3.915 4.025
382 21 4 -0.041 26.584 3.976 3.994
383 21 36 -0.4603 27.087 4.074 2.638
384 21 4 -0.0909 27.309 5.333 1.976
385 21 4 -0.2218 27.448 4.943 0.5169999999999999
386 21 4 -0.3187 28.009999999999998 3.527 0.5659999999999998
387 21 1 0.4752 27.453 2.988 1.859
388 21 49 -0.5417 27.394 1.81 2.169
389 21 25 0.1549 24.711 3.83 5.056
390 21 25 0.1801 24.699 3.05 3.4619999999999997
391 21 25 0.1636 24.627 4.814 3.582
392 21 19 0.1455 26.989 3.067 4.452
393 21 19 0.1216 26.951999999999998 4.835 4.566
394 21 19 0.129 28.23 5.774 2.371
395 21 19 0.1243 26.469 6.013999999999999 2.142
396 21 25 0.1315 28.076999999999998 5.633 -0.04999999999999982
397 21 25 0.1416 26.458 4.924 0.04400000000000004
398 21 25 0.1609 29.103 3.5300000000000002 0.6259999999999999
399 21 25 0.1622 27.678 2.9299999999999997 -0.2869999999999999
400 22 4 -0.4161 25.068 3.915 104.025
401 22 4 -0.041 26.584 3.976 103.994
402 22 36 -0.4603 27.087 4.074 102.638
403 22 4 -0.0909 27.309 5.333 101.976
404 22 4 -0.2218 27.448 4.943 100.517
405 22 4 -0.3187 28.009999999999998 3.527 100.566
406 22 1 0.4752 27.453 2.988 101.859
407 22 49 -0.5417 27.394 1.81 102.169
408 22 25 0.1549 24.711 3.83 105.056
409 22 25 0.1801 24.699 3.05 103.462
410 22 25 0.1636 24.627 4.814 103.582
411 22 19 0.1455 26.989 3.067 104.452
412 22 19 0.1216 26.951999999999998 4.835 104.566
413 22 19 0.129 28.23 5.774 102.371
414 22 19 0.1243 26.469 6.013999999999999 102.142
415 22 25 0.1315 28.076999999999998 5.633 99.95
416 22 25 0.1416 26.458 4.924 100.044
417 22 25 0.1609 29.103 3.5300000000000002 100.626
418 22 25 0.1622 27.678 2.9299999999999997 99.713
419 23 4 -0.4161 25.068 43.915 4.025
420 23 4 -0.041 26.584 43.976 3.994
421 23 36 -0.4603 27.087 44.074 2.638
422 23 4 -0.0909 27.309 45.333 1.976
423 23 4 -0.2218 27.448 44.943 0.5169999999999999
424 23 4 -0.3187 28.009999999999998 43.527 0.5659999999999998
425 23 1 0.4752 27.453 42.988 1.859
426 23 49 -0.5417 27.394 41.81 2.169
427 23 25 0.1549 24.711 43.83 5.056
428 23 25 0.1801 24.699 43.05 3.4619999999999997
429 23 25 0.1636 24.627 44.814 3.582
430 23 19 0.1455 26.989 43.067 4.452
431 23 19 0.1216 26.951999999999998 44.835 4.566
432 23 19 0.129 28.23 45.774 2.371
433 23 19 0.1243 26.469 46.014 2.142
434 23 25 0.1315 28.076999999999998 45.633 -0.04999999999999982
435 23 25 0.1416 26.458 44.924 0.04400000000000004
436 23 25 0.1609 29.103 43.53 0.6259999999999999
437 23 25 0.1622 27.678 42.93 -0.2869999999999999
438 24 4 -0.4161 25.068 43.915 104.025
439 24 4 -0.041 26.584 43.976 103.994
440 24 36 -0.4603 27.087 44.074 102.638
441 24 4 -0.0909 27.309 45.333 101.976
442 24 4 -0.2218 27.448 44.943 100.517
443 24 4 -0.3187 28.009999999999998 43.527 100.566
444 24 1 0.4752 27.453 42.988 101.859
445 24 49 -0.5417 27.394 41.81 102.169
446 24 25 0.1549 24.711 43.83 105.056
447 24 25 0.1801 24.699 43.05 103.462
448 24 25 0.1636 24.627 44.814 103.582
449 24 19 0.1455 26.989 43.067 104.452
450 24 19 0.1216 26.951999999999998 44.835 104.566
451 24 19 0.129 28.23 45.774 102.371
452 24 19 0.1243 26.469 46.014 102.142
453 24 25 0.1315 28.076999999999998 45.633 99.95
454 24 25 0.1416 26.458 44.924 100.044
455 24 25 0.1609 29.103 43.53 100.626
456 24 25 0.1622 27.678 42.93 99.713
457 25 4 -0.4161 25.068 83.915 4.025
458 25 4 -0.041 26.584 83.976 3.994
459 25 36 -0.4603 27.087 84.074 2.638
460 25 4 -0.0909 27.309 85.333 1.976
461 25 4 -0.2218 27.448 84.943 0.5169999999999999
462 25 4 -0.3187 28.009999999999998 83.527 0.5659999999999998
463 25 1 0.4752 27.453 82.988 1.859
464 25 49 -0.5417 27.394 81.81 2.169
465 25 25 0.1549 24.711 83.83 5.056
466 25 25 0.1801 24.699 83.05 3.4619999999999997
467 25 25 0.1636 24.627 84.814 3.582
468 25 19 0.1455 26.989 83.067 4.452
469 25 19 0.1216 26.951999999999998 84.835 4.566
470 25 19 0.129 28.23 85.774 2.371
471 25 19 0.1243 26.469 86.014 2.142
472 25 25 0.1315 28.076999999999998 85.633 -0.04999999999999982
473 25 25 0.1416 26.458 84.924 0.04400000000000004
474 25 25 0.1609 29.103 83.53 0.6259999999999999
475 25 25 0.1622 27.678 82.93 -0.2869999999999999
476 26 4 -0.4161 25.068 83.915 104.025
477 26 4 -0.041 26.584 83.976 103.994
478 26 36 -0.4603 27.087 84.074 102.638
479 26 4 -0.0909 27.309 85.333 101.976
480 26 4 -0.2218 27.448 84.943 100.517
481 26 4 -0.3187 28.009999999999998 83.527 100.566
482 26 1 0.4752 27.453 82.988 101.859
483 26 49 -0.5417 27.394 81.81 102.169
484 26 25 0.1549 24.711 83.83 105.056
485 26 25 0.1801 24.699 83.05 103.462
486 26 25 0.1636 24.627 84.814 103.582
487 26 19 0.1455 26.989 83.067 104.452
488 26 19 0.1216 26.951999999999998 84.835 104.566
489 26 19 0.129 28.23 85.774 102.371
490 26 19 0.1243 26.469 86.014 102.142
491 26 25 0.1315 28.076999999999998 85.633 99.95
492 26 25 0.1416 26.458 84.924 100.044
493 26 25 0.1609 29.103 83.53 100.626
494 26 25 0.1622 27.678 82.93 99.713
495 27 4 -0.4161 25.068 123.915 4.025
496 27 4 -0.041 26.584 123.976 3.994
497 27 36 -0.4603 27.087 124.074 2.638
498 27 4 -0.0909 27.309 125.333 1.976
499 27 4 -0.2218 27.448 124.943 0.5169999999999999
500 27 4 -0.3187 28.009999999999998 123.527 0.5659999999999998
501 27 1 0.4752 27.453 122.988 1.859
502 27 49 -0.5417 27.394 121.81 2.169
503 27 25 0.1549 24.711 123.83 5.056
504 27 25 0.1801 24.699 123.05 3.4619999999999997
505 27 25 0.1636 24.627 124.814 3.582
506 27 19 0.1455 26.989 123.067 4.452
507 27 19 0.1216 26.951999999999998 124.835 4.566
508 27 19 0.129 28.23 125.774 2.371
509 27 19 0.1243 26.469 126.014 2.142
510 27 25 0.1315 28.076999999999998 125.633 -0.04999999999999982
511 27 25 0.1416 26.458 124.924 0.04400000000000004
512 27 25 0.1609 29.103 123.53 0.6259999999999999
513 27 25 0.1622 27.678 122.93 -0.2869999999999999
514 28 4 -0.4161 25.068 123.915 104.025
515 28 4 -0.041 26.584 123.976 103.994
516 28 36 -0.4603 27.087 124.074 102.638
517 28 4 -0.0909 27.309 125.333 101.976
518 28 4 -0.2218 27.448 124.943 100.517
519 28 4 -0.3187 28.009999999999998 123.527 100.566
520 28 1 0.4752 27.453 122.988 101.859
521 28 49 -0.5417 27.394 121.81 102.169
522 28 25 0.1549 24.711 123.83 105.056
523 28 25 0.1801 24.699 123.05 103.462
524 28 25 0.1636 24.627 124.814 103.582
525 28 19 0.1455 26.989 123.067 104.452
526 28 19 0.1216 26.951999999999998 124.835 104.566
527 28 19 0.129 28.23 125.774 102.371
528 28 19 0.1243 26.469 126.014 102.142
529 28 25 0.1315 28.076999999999998 125.633 99.95
530 28 25 0.1416 26.458 124.924 100.044
531 28 25 0.1609 29.103 123.53 100.626
532 28 25 0.1622 27.678 122.93 99.713
533 29 4 -0.4161 25.068 163.915 4.025
534 29 4 -0.041 26.584 163.976 3.994
535 29 36 -0.4603 27.087 164.074 2.638
536 29 4 -0.0909 27.309 165.333 1.976
537 29 4 -0.2218 27.448 164.943 0.5169999999999999
538 29 4 -0.3187 28.009999999999998 163.527 0.5659999999999998
539 29 1 0.4752 27.453 162.988 1.859
540 29 49 -0.5417 27.394 161.81 2.169
541 29 25 0.1549 24.711 163.83 5.056
542 29 25 0.1801 24.699 163.05 3.4619999999999997
543 29 25 0.1636 24.627 164.814 3.582
544 29 19 0.1455 26.989 163.067 4.452
545 29 19 0.1216 26.951999999999998 164.835 4.566
546 29 19 0.129 28.23 165.774 2.371
547 29 19 0.1243 26.469 166.014 2.142
548 29 25 0.1315 28.076999999999998 165.633 -0.04999999999999982
549 29 25 0.1416 26.458 164.924 0.04400000000000004
550 29 25 0.1609 29.103 163.53 0.6259999999999999
551 29 25 0.1622 27.678 162.93 -0.2869999999999999
552 30 4 -0.4161 25.068 163.915 104.025
553 30 4 -0.041 26.584 163.976 103.994
554 30 36 -0.4603 27.087 164.074 102.638
555 30 4 -0.0909 27.309 165.333 101.976
556 30 4 -0.2218 27.448 164.943 100.517
557 30 4 -0.3187 28.009999999999998 163.527 100.566
558 30 1 0.4752 27.453 162.988 101.859
559 30 49 -0.5417 27.394 161.81 102.169
560 30 25 0.1549 24.711 163.83 105.056
561 30 25 0.1801 24.699 163.05 103.462
562 30 25 0.1636 24.627 164.814 103.582
563 30 19 0.1455 26.989 163.067 104.452
564 30 19 0.1216 26.951999999999998 164.835 104.566
565 30 19 0.129 28.23 165.774 102.371
566 30 19 0.1243 26.469 166.014 102.142
567 30 25 0.1315 28.076999999999998 165.633 99.95
568 30 25 0.1416 26.458 164.924 100.044
569 30 25 0.1609 29.103 163.53 100.626
570 30 25 0.1622 27.678 162.93 99.713
571 31 4 -0.4161 35.068 3.915 4.025
572 31 4 -0.041 36.584 3.976 3.994
573 31 36 -0.4603 37.087 4.074 2.638
574 31 4 -0.0909 37.309 5.333 1.976
575 31 4 -0.2218 37.448 4.943 0.5169999999999999
576 31 4 -0.3187 38.01 3.527 0.5659999999999998
577 31 1 0.4752 37.453 2.988 1.859
578 31 49 -0.5417 37.394 1.81 2.169
579 31 25 0.1549 34.711 3.83 5.056
580 31 25 0.1801 34.699 3.05 3.4619999999999997
581 31 25 0.1636 34.627 4.814 3.582
582 31 19 0.1455 36.989 3.067 4.452
583 31 19 0.1216 36.952 4.835 4.566
584 31 19 0.129 38.230000000000004 5.774 2.371
585 31 19 0.1243 36.469 6.013999999999999 2.142
586 31 25 0.1315 38.077 5.633 -0.04999999999999982
587 31 25 0.1416 36.458 4.924 0.04400000000000004
588 31 25 0.1609 39.103 3.5300000000000002 0.6259999999999999
589 31 25 0.1622 37.678 2.9299999999999997 -0.2869999999999999
590 32 4 -0.4161 35.068 3.915 104.025
591 32 4 -0.041 36.584 3.976 103.994
592 32 36 -0.4603 37.087 4.074 102.638
593 32 4 -0.0909 37.309 5.333 101.976
594 32 4 -0.2218 37.448 4.943 100.517
595 32 4 -0.3187 38.01 3.527 100.566
596 32 1 0.4752 37.453 2.988 101.859
597 32 49 -0.5417 37.394 1.81 102.169
598 32 25 0.1549 34.711 3.83 105.056
599 32 25 0.1801 34.699 3.05 103.462
600 32 25 0.1636 34.627 4.814 103.582
601 32 19 0.1455 36.989 3.067 104.452
602 32 19 0.1216 36.952 4.835 104.566
603 32 19 0.129 38.230000000000004 5.774 102.371
604 32 19 0.1243 36.469 6.013999999999999 102.142
605 32 25 0.1315 38.077 5.633 99.95
606 32 25 0.1416 36.458 4.924 100.044
607 32 25 0.1609 39.103 3.5300000000000002 100.626
608 32 25 0.1622 37.678 2.9299999999999997 99.713
609 33 4 -0.4161 35.068 43.915 4.025
610 33 4 -0.041 36.584 43.976 3.994
611 33 36 -0.4603 37.087 44.074 2.638
612 33 4 -0.0909 37.309 45.333 1.976
613 33 4 -0.2218 37.448 44.943 0.5169999999999999
614 33 4 -0.3187 38.01 43.527 0.5659999999999998
615 33 1 0.4752 37.453 42.988 1.859
616 33 49 -0.5417 37.394 41.81 2.169
617 33 25 0.1549 34.711 43.83 5.056
618 33 25 0.1801 34.699 43.05 3.4619999999999997
619 33 25 0.1636 34.627 44.814 3.582
620 33 19 0.1455 36.989 43.067 4.452
621 33 19 0.1216 36.952 44.835 4.566
622 33 19 0.129 38.230000000000004 45.774 2.371
623 33 19 0.1243 36.469 46.014 2.142
624 33 25 0.1315 38.077 45.633 -0.04999999999999982
625 33 25 0.1416 36.458 44.924 0.04400000000000004
626 33 25 0.1609 39.103 43.53 0.6259999999999999
627 33 25 0.1622 37.678 42.93 -0.2869999999999999
628 34 4 -0.4161 35.068 43.915 104.025
629 34 4 -0.041 36.584 43.976 103.994
630 34 36 -0.4603 37.087 44.074 102.638
631 34 4 -0.0909 37.309 45.333 101.976
632 34 4 -0.2218 37.448 44.943 100.517
633 34 4 -0.3187 38.01 43.527 100.566
634 34 1 0.4752 37.453 42.988 101.859
635 34 49 -0.5417 37.394 41.81 102.169
636 34 25 0.1549 34.711 43.83 105.056
637 34 25 0.1801 34.699 43.05 103.462
638 34 25 0.1636 34.627 44.814 103.582
639 34 19 0.1455 36.989 43.067 104.452
640 34 19 0.1216 36.952 44.835 104.566
641 34 19 0.129 38.230000000000004 45.774 102.371
642 34 19 0.1243 36.469 46.014 102.142
643 34 25 0.1315 38.077 45.633 99.95
644 34 25 0.1416 36.458 44.924 100.044
645 34 25 0.1609 39.103 43.53 100.626
646 34 25 0.1622 37.678 42.93 99.713
647 35 4 -0.4161 35.068 83.915 4.025
648 35 4 -0.041 36.584 83.976 3.994
649 35 36 -0.4603 37.087 84.074 2.638
650 35 4 -0.0909 37.309 85.333 1.976
651 35 4 -0.2218 37.448 84.943 0.5169999999999999
652 35 4 -0.3187 38.01 83.527 0.5659999999999998
653 35 1 0.4752 37.453 82.988 1.859
654 35 49 -0.5417 37.394 81.81 2.169
655 35 25 0.1549 34.711 83.83 5.056
656 35 25 0.1801 34.699 83.05 3.4619999999999997
657 35 25 0.1636 34.627 84.814 3.582
658 35 19 0.1455 36.989 83.067 4.452
659 35 19 0.1216 36.952 84.835 4.566
660 35 19 0.129 38.230000000000004 85.774 2.371
661 35 19 0.1243 36.469 86.014 2.142
662 35 25 0.1315 38.077 85.633 -0.04999999999999982
663 35 25 0.1416 36.458 84.924 0.04400000000000004
664 35 25 0.1609 39.103 83.53 0.6259999999999999
665 35 25 0.1622 37.678 82.93 -0.2869999999999999
666 36 4 -0.4161 35.068 83.915 104.025
667 36 4 -0.041 36.584 83.976 103.994
668 36 36 -0.4603 37.087 84.074 102.638
669 36 4 -0.0909 37.309 85.333 101.976
670 36 4 -0.2218 37.448 84.943 100.517
671 36 4 -0.3187 38.01 83.527 100.566
672 36 1 0.4752 37.453 82.988 101.859
673 36 49 -0.5417 37.394 81.81 102.169
674 36 25 0.1549 34.711 83.83 105.056
675 36 25 0.1801 34.699 83.05 103.462
676 36 25 0.1636 34.627 84.814 103.582
677 36 19 0.1455 36.989 83.067 104.452
678 36 19 0.1216 36.952 84.835 104.566
679 36 19 0.129 38.230000000000004 85.774 102.371
680 36 19 0.1243 36.469 86.014 102.142
681 36 25 0.1315 38.077 85.633 99.95
682 36 25 0.1416 36.458 84.924 100.044
683 36 25 0.1609 39.103 83.53 100.626
684 36 25 0.1622 37.678 82.93 99.713
685 37 4 -0.4161 35.068 123.915 4.025
686 37 4 -0.041 36.584 123.976 3.994
687 37 36 -0.4603 37.087 124.074 2.638
688 37 4 -0.0909 37.309 125.333 1.976
689 37 4 -0.2218 37.448 124.943 0.5169999999999999
690 37 4 -0.3187 38.01 123.527 0.5659999999999998
691 37 1 0.4752 37.453 122.988 1.859