LAMMPS data file via write_data, version 2 Aug 2023, timestep = 210, units = real

277 atoms
71 atom types
296 bonds
807 bond types
470 angles
4248 angle types
696 dihedrals
641 dihedral types
105 impropers
38 improper types

0 138.615 xlo xhi
0 200 ylo yhi
0 40 zlo zhi

Masses

1 12.01
2 12.01
3 12.01
4 12.01
5 12.01
6 12.01
7 12.01
8 12.01
9 12.01
10 12.01
11 12.01
12 12.01
13 12.01
14 12.01
15 12.01
16 12.01
17 12.01
18 12.01
19 1.008
20 1.008
21 1.008
22 1.008
23 1.008
24 1.008
25 1.008
26 1.008
27 1.008
28 1.008
29 1.008
30 1.008
31 1.008
32 19
33 35.45
34 79.90000000000001
35 126.9
36 14.01
37 14.01
38 14.01
39 14.01
40 14.01
41 14.01
42 14.01
43 14.01
44 14.01
45 14.01
46 14.01
47 14.01
48 14.01
49 16
50 16
51 16
52 16
53 30.97
54 30.97
55 30.97
56 30.97
57 30.97
58 30.97
59 30.97
60 30.97
61 30.97
62 30.97
63 30.97
64 32.06
65 32.06
66 32.06
67 32.06
68 32.06
69 32.06
70 32.06
71 32.06

Atoms # full

21 3 22 0.198422 16.510062234396493 11.902279078640737 7.143513898023551 0 0 0
8 3 5 0.0987 17.329826098319376 11.951965039058397 7.86294265902695 0 0 0
20 3 22 0.183022 20.541069080673516 11.318574368848022 7.848264474616331 0 0 0
7 3 42 -0.3532 18.54140592003862 11.56279357533496 7.406800762651972 0 0 0
29 4 36 -0.8004 21.745231541480855 11.393635909336096 10.126851978519463 0 0 0
37 4 5 0.2878 23.039188865754262 11.29345340658026 10.720930968749062 0 0 0
38 4 5 -0.1622 23.303937620882103 11.531368352471494 12.07260722541751 0 0 0
50 4 26 0.33023 21.68168171740164 10.932479399764517 9.242405773139446 0 0 0
51 4 24 0.18823 22.493110525161832 11.812712638696054 12.734298801117907 0 0 0
36 4 5 -0.164 24.084961645007173 10.894390784984264 9.89038909882504 0 0 0
49 4 24 0.19193 23.887442520246687 10.690441588752801 8.844553589442489 0 0 0
3 3 1 0.2789 20.63032340314189 12.035619824891054 10.543670602966671 0 0 0
5 3 5 -0.0317 19.461239282037575 12.014753974283082 9.601923743077872 0 0 0
6 3 5 0.0643 19.583322868725887 11.60507702007744 8.26808710860331 0 0 0
31 4 49 -0.5255 27.94801731550969 12.074011365831188 10.502240456348655 0 0 0
32 4 1 0.5056 28.08185522688409 11.499537363139742 11.562109729472557 0 0 0
33 4 36 -0.7050999999999999 26.997800171555447 11.028234591506203 12.21303896654449 0 0 0
34 4 5 0.2847 25.65877085999266 11.082352806700266 11.721776224304348 0 0 0
35 4 5 -0.1359 25.3819455814758 10.784557510383697 10.389186370543873 0 0 0
39 4 5 -0.1629 24.60981227254687 11.424205802773178 12.57162163608408 0 0 0
40 4 5 -0.0434 29.44846678190422 11.26951491664816 12.148681557075276 0 0 0
48 4 24 0.22553 26.20068187257535 10.499526356852446 9.732593186157759 0 0 0
47 4 26 0.31233 27.119096016644967 10.627318257522967 13.12187811705991 0 0 0
41 4 5 -0.073 30.549176551693503 11.630833258625705 11.36759385912644 0 0 0
53 4 24 0.19553 30.390269448183396 12.076838796842418 10.383116128949508 0 0 0
57 5 36 -0.8004 34.39822273695877 10.45284150479174 12.64560325536441 0 0 0
65 5 5 0.2878 35.81105841392223 10.441579149427922 12.784582851499566 0 0 0
78 5 26 0.33023 34.07041647197448 10.360641019547453 11.7038253503064 0 0 0
77 5 24 0.19193 36.063101629491264 11.349519096621322 10.86035056286119 0 0 0
54 4 24 0.18303 32.6841232603661 11.755763733260157 11.212842930834718 0 0 0
42 4 5 -0.1135 31.84654483899959 11.434451104878926 11.823310510639804 0 0 0
43 4 5 0.0058 32.07078674678925 10.85941824893342 13.075329889806563 0 0 0
59 5 49 -0.5255 40.87521412871619 10.816140644551066 11.22024592608033 0 0 0
60 5 1 0.5056 40.94973653751088 11.153122903447422 12.381938265464177 0 0 0
61 5 36 -0.7050999999999999 39.97140502046017 10.851325151266977 13.25483829678504 0 0 0
62 5 5 0.2847 38.59825853660182 10.579861362686248 12.998482211991066 0 0 0
63 5 5 -0.1359 37.960152115829814 11.036716504140445 11.845175990032992 0 0 0
64 5 5 -0.164 36.56911790476165 10.961745361957346 11.7396951022138 0 0 0
68 5 5 -0.0434 42.075556304514386 11.997687251774583 12.921656523299172 0 0 0
76 5 24 0.22553 38.54453909954705 11.486302572415424 11.049455137668222 0 0 0
81 5 24 0.19553 43.10762783879272 12.075267813325466 11.03164297444676 0 0 0
90 6 42 -0.3532 53.28731303901558 11.589169024701329 7.554176619404529 0 0 0
104 6 22 0.198422 51.21763070000547 11.717591318596094 7.434647748286313 0 0 0
91 6 5 0.0987 52.06702626049669 11.728744852741295 8.11925117384563 0 0 0
92 6 5 -0.082 51.8792267737575 11.933664595842341 9.487414139175414 0 0 0
94 6 49 -0.5201 49.49977869444773 11.826468356660339 9.384717761010707 0 0 0
102 6 5 -0.0596 53.009978001887866 11.955059756050412 10.31326186230473 0 0 0
106 6 24 0.231822 48.82272835934097 11.704570543493812 12.969939340604986 0 0 0
111 6 24 0.206822 52.929928970726785 12.088966039331051 11.38853076618144 0 0 0
103 6 22 0.183022 55.33157123993594 11.573588000851855 7.859392949530194 0 0 0
112 7 36 -0.8004 56.67087756601328 11.53321056256383 10.103524018655287 0 0 0
119 7 5 -0.164 59.061362667792615 11.677363768076992 9.791312630276757 0 0 0
120 7 5 0.2878 57.97902005050402 11.619289878430859 10.666023442619615 0 0 0
121 7 5 -0.1622 58.2210640507099 11.6058065037044 12.04001256299312 0 0 0
122 7 5 -0.1629 59.529428893688 11.658589463525622 12.527465308691742 0 0 0
132 7 24 0.19193 58.87701441128792 11.690162280264174 8.722430082339084 0 0 0
133 7 26 0.33023 56.64845486423797 11.130777783758917 9.186460895723611 0 0 0
134 7 24 0.18823 57.38622569542592 11.553840638704008 12.730753666873715 0 0 0
88 6 5 -0.0317 54.27770855515026 11.807516409206999 9.746797962550133 0 0 0
89 6 5 0.0643 54.36972277404562 11.635305201562911 8.362261227832805 0 0 0
86 6 1 0.2789 55.48999856473833 11.930685264258583 10.623871789416063 0 0 0
114 7 49 -0.5255 63.240083277218254 11.118106309315838 10.568583998246835 0 0 0
115 7 1 0.5056 63.12326742234375 11.624655615117653 11.661530677481451 0 0 0
116 7 36 -0.7050999999999999 61.91375927049989 11.83124328890779 12.22346479538549 0 0 0
117 7 5 0.2847 60.611895601723624 11.707364276801686 11.6541085566429 0 0 0
118 7 5 -0.1359 60.36936084355328 11.733745060919485 10.279843197653541 0 0 0
131 7 24 0.22553 61.201906241723414 11.805271708002676 9.58513361142384 0 0 0
161 8 24 0.231822 71.19603226328134 11.567758490783214 12.785640940093604 0 0 0
158 8 22 0.183022 77.62858179608419 11.69288017896004 7.888785721506403 0 0 0
145 8 42 -0.3532 75.60972925290524 11.771258448190792 7.471913810945263 0 0 0
159 8 22 0.198422 73.54974122672125 11.92751652335805 7.242309854509913 0 0 0
141 8 1 0.2789 77.64262651492727 11.95771675455566 10.676404444267288 0 0 0
143 8 5 -0.0317 76.48441478904853 11.94995539237838 9.721115654167226 0 0 0
144 8 5 0.0643 76.6445005978768 11.78962115302086 8.339025701614153 0 0 0
146 8 5 0.0987 74.36424590385495 11.933104145738696 7.968552716398573 0 0 0
167 9 36 -0.8004 78.82610092364574 11.555628274778655 10.169085953038435 0 0 0
172 9 5 0.2847 82.75757246801768 11.250290451679376 11.713800270082878 0 0 0
173 9 5 -0.1359 82.46334336457105 10.97905003927327 10.37841319178445 0 0 0
174 9 5 -0.164 81.15923038707658 11.091394307239518 9.900470379282472 0 0 0
175 9 5 0.2878 80.12176243412452 11.455815996591182 10.755144022550748 0 0 0
176 9 5 -0.1622 80.40468803329244 11.680368535450544 12.10464638686596 0 0 0
177 9 5 -0.1629 81.7183332079611 11.574484436503884 12.581411769421308 0 0 0
186 9 24 0.22553 83.26936820991925 10.709186004828739 9.700482511513533 0 0 0
187 9 24 0.19193 80.94884222235508 10.910046313233297 8.852415109879841 0 0 0
188 9 26 0.33023 78.80830546403344 11.265296233587296 9.212395081189744 0 0 0
189 9 24 0.18823 79.60637176891233 11.950452662776291 12.785580432936516 0 0 0
171 9 36 -0.7050999999999999 84.09971492198683 11.181480062749424 12.197386837961172 0 0 0
185 9 26 0.31233 84.2117309885972 10.834069905786308 13.128778743502897 0 0 0
170 9 1 0.5056 85.19553566373804 11.588914244674891 11.523654426492834 0 0 0
178 9 5 -0.0434 86.56045893538726 11.312951708733362 12.097199723844026 0 0 0
179 9 5 -0.073 87.66558159278517 11.660444926662402 11.31401632517396 0 0 0
192 9 24 0.18303 89.80104446839356 11.748999793691961 11.149513637881686 0 0 0
180 9 5 -0.1135 88.96183498968355 11.432781516252946 11.760466144855833 0 0 0
181 9 5 0.0058 89.18405914279043 10.836750010769036 13.002386592069259 0 0 0
195 10 36 -0.8004 91.51790048943755 10.41502243631751 12.567603023848603 0 0 0
200 10 5 0.2847 95.72807858071192 10.464455290416494 12.921357550015513 0 0 0
201 10 5 -0.1359 95.09512936404442 10.910134807321201 11.760574177118945 0 0 0
202 10 5 -0.164 93.70292214492099 10.855387336479453 11.656119472832234 0 0 0
203 10 5 0.2878 92.93195160245935 10.368083373185685 12.708333443146811 0 0 0
214 10 24 0.22553 95.68128151873579 11.33818726646681 10.95602777653072 0 0 0
215 10 24 0.19193 93.20654305269203 11.234114818885045 10.768089411337067 0 0 0
216 10 26 0.33023 91.19280978486022 10.360242683689574 11.621918110176745 0 0 0
199 10 36 -0.7050999999999999 97.10746977634507 10.712031300268206 13.17991001810734 0 0 0
197 10 49 -0.5255 98.02181951403024 10.946158410562585 11.154036766472391 0 0 0
198 10 1 0.5056 98.0716874667767 11.151069015182008 12.348030344051367 0 0 0
206 10 5 -0.0434 99.16474880026352 11.963939684941868 12.991940959206167 0 0 0
219 10 24 0.19553 100.37825355352872 12.05485833387147 11.213033180135358 0 0 0
232 11 49 -0.5201 107.31322339117331 12.075087685273264 10.380321348350929 0 0 0
242 11 22 0.198422 108.7342053656605 11.813157152600855 8.130120123236372 0 0 0
269 12 22 0.198422 120.09174374879373 11.223873197599556 8.317544547163118 0 0 0
255 12 42 -0.3532 121.91816257519552 12.01310590941029 7.719891070425818 0 0 0
256 12 5 0.0987 120.77146018091243 12.069721725557537 8.437110095042685 0 0 0
1 2 26 0 10.696261119240031 16.80698140762203 12.38198149844909 0 0 0
2 3 36 -0.7932 10.880626639106872 15.842372485318519 12.616532425349364 0 0 0
25 3 26 0.338122 10.149649816305654 15.255098795953561 12.99141573885772 0 0 0
9 3 5 -0.082 17.120577247731028 12.422218700585882 9.15871676380273 0 0 0
10 3 1 0.5187 15.747043357076723 12.880085558660022 9.535052425037167 0 0 0
11 3 49 -0.5201 14.779123372478828 12.687327455862118 8.832704923649722 0 0 0
12 3 36 -0.696 15.622568773753006 13.551712725453385 10.689790865195343 0 0 0
13 3 5 0.2861 14.417668287561762 14.112434382547619 11.169770867520029 0 0 0
14 3 5 -0.1316 13.657665757230198 13.434193072669093 12.11783015680616 0 0 0
15 3 5 -0.1593 12.47129431832197 14.002150069250394 12.594245846433385 0 0 0
16 3 5 0.2897 12.061283206740526 15.245736813388845 12.122401343429342 0 0 0
17 3 5 -0.1571 12.821759752416945 15.921979816046864 11.176563576225707 0 0 0
18 3 5 -0.1552 14.00700381712127 15.356515643650592 10.697727624183308 0 0 0
22 3 26 0.323322 16.45473878448171 13.778196508434043 11.201945113787891 0 0 0
23 3 24 0.231822 13.996718941735649 12.46599050975272 12.472636229472153 0 0 0
26 3 24 0.197322 12.476000302861454 16.887397358749208 10.82016512430309 0 0 0
27 3 24 0.196422 14.610609738703637 15.869572511488856 9.956180210353578 0 0 0
4 3 49 -0.4729 20.569415061627787 12.593732525548365 11.615428729864414 0 0 0
19 3 5 -0.0596 18.207366612487288 12.446524544184207 10.04329282282487 0 0 0
28 3 24 0.206822 18.105671694289473 12.780727798119056 11.071494379351511 0 0 0
69 5 5 -0.073 43.100726703092015 12.421804089033962 12.067058841170523 0 0 0
82 5 24 0.18303 44.79945079213849 13.718953226939517 11.79699486550631 0 0 0
98 6 5 -0.1593 47.393149012684866 13.29703852021383 13.324091541268348 0 0 0
99 6 5 0.2897 46.98776080366108 14.575991709814774 12.950152730610556 0 0 0
100 6 5 -0.1571 47.64898596189685 15.242803743136319 11.925495042172138 0 0 0
109 6 24 0.197322 47.330490686223314 16.24976330505272 11.664578603399583 0 0 0
70 5 5 -0.1135 44.0641811374367 13.338622195893011 12.499391771069583 0 0 0
93 6 1 0.5187 50.48726295568305 12.172801376521484 9.992643537485456 0 0 0
95 6 36 -0.696 50.37002421701516 12.860524661066524 11.139020209505164 0 0 0
96 6 5 0.2861 49.161144093980525 13.378110101163793 11.675686027094292 0 0 0
97 6 5 -0.1316 48.47871611277415 12.69216116068923 12.677244219959233 0 0 0
101 6 5 -0.1552 48.73418572186574 14.642568553732566 11.282830687068898 0 0 0
105 6 26 0.323322 51.21369311201389 13.200500605228191 11.565941585114642 0 0 0
110 6 24 0.196422 49.270017915707946 15.168701097489038 10.498033939205751 0 0 0
87 6 49 -0.4729 55.40564277759821 12.384734592809876 11.745029334928622 0 0 0
123 7 5 -0.0434 64.29267839911336 12.169083247935902 12.432061360940411 0 0 0
124 7 5 -0.073 65.42146307613919 12.600320667583086 11.730213651547725 0 0 0
136 7 24 0.19553 65.47524791493328 12.426758171648046 10.654792899273934 0 0 0
130 7 26 0.31233 61.917381720647505 12.223715291033125 13.144224662910865 0 0 0
137 7 24 0.18303 67.23245688469568 13.747236530137208 11.776795669680974 0 0 0
151 8 5 0.2861 71.36504660508582 13.339969053072698 11.593615280821396 0 0 0
152 8 5 -0.1316 70.79338286599216 12.558098851704056 12.591525293805939 0 0 0
154 8 5 0.2897 69.2987746990701 14.368611349560489 13.126965874427563 0 0 0
155 8 5 -0.1571 69.84783254685355 15.136112713813008 12.107987271619844 0 0 0
156 8 5 -0.1552 70.88383031614987 14.617865748159081 11.33075480754011 0 0 0
164 8 24 0.197322 69.48878753621487 16.15360041602133 11.961398236005099 0 0 0
165 8 24 0.196422 71.35163094068704 15.216973074418538 10.553273788815765 0 0 0
149 8 49 -0.5201 71.73737471221295 12.196987210507007 9.058748960480461 0 0 0
125 7 5 -0.1135 66.42092991570345 13.337721580463015 12.36940436409372 0 0 0
142 8 49 -0.4729 77.50878503475595 12.294665664895085 11.83215193336866 0 0 0
147 8 5 -0.082 74.11049924894681 12.1419671262834 9.323268169583084 0 0 0
148 8 1 0.5187 72.70277613916775 12.398249275083236 9.760654430939653 0 0 0
150 8 36 -0.696 72.5652727992613 12.916186647132806 10.98655099653823 0 0 0
157 8 5 -0.0596 75.1932594222436 12.136047258479747 10.213800145897132 0 0 0
160 8 26 0.323322 73.4011735785494 13.1341092395131 11.495178727072432 0 0 0
166 8 24 0.206822 75.0637157254602 12.266733919892406 11.283150718525212 0 0 0
169 9 49 -0.5255 85.07457089372816 12.15023494685898 10.455292653638368 0 0 0
191 9 24 0.19553 87.50893745107163 12.121781912336631 10.33748159388366 0 0 0
207 10 5 -0.073 100.27645982721492 12.382105062606248 12.250195904658392 0 0 0
220 10 24 0.18303 102.03490756608691 13.614567255637768 12.18028816963482 0 0 0
208 10 5 -0.1135 101.22109768318114 13.258743153828146 12.798928666296218 0 0 0
231 11 1 0.5187 107.88539986306142 13.138058485810125 10.323951388746805 0 0 0
233 11 36 -0.696 107.3515924414579 14.249391991808587 10.857137841830731 0 0 0
234 11 5 0.2861 106.13627797745828 14.366249196518103 11.590159864276645 0 0 0
235 11 5 -0.1316 105.76167653278263 13.41997808429143 12.54600760243991 0 0 0
237 11 5 0.2897 103.95576024264224 14.852850595697754 13.258944165196251 0 0 0
238 11 5 -0.1571 104.29286738933298 15.769190762744374 12.27137446940717 0 0 0
239 11 5 -0.1552 105.38353354073418 15.526468424819432 11.433776404074761 0 0 0
243 11 26 0.323322 107.82303444620874 15.11341643310011 10.665346626857223 0 0 0
244 11 24 0.231822 106.35211708105832 12.514629891986718 12.660783874442016 0 0 0
247 11 24 0.197322 103.72642498730832 16.69563376747693 12.203006323986441 0 0 0
248 11 24 0.196422 105.67148018876301 16.25952104134208 10.685514385835095 0 0 0
241 11 22 0.183022 112.34748921783707 13.757759038424979 7.4970007855628475 0 0 0
228 11 42 -0.3532 110.55531777642858 12.719734939207893 7.719769211481233 0 0 0
224 11 1 0.2789 112.44449738607064 15.27865880745288 9.678001270711489 0 0 0
225 11 49 -0.4729 112.81373498465088 16.180760314251593 8.963039291559761 0 0 0
226 11 5 -0.0317 111.32021232320024 14.386691156309778 9.288692273588097 0 0 0
227 11 5 0.0643 111.45931295466654 13.642174593432921 8.119936969378633 0 0 0
229 11 5 0.0987 109.44749295973747 12.560248137152492 8.480044985388666 0 0 0
230 11 5 -0.082 109.18940010173156 13.324346492472323 9.620374718794825 0 0 0
240 11 5 -0.0596 110.16291130175513 14.235600353164953 10.052534205627529 0 0 0
249 11 24 0.206822 110.03954495985352 14.818208149949012 10.962049718418454 0 0 0
250 12 36 -0.7932 113.11292640504756 14.895070583368174 10.783844549222486 0 0 0
273 12 26 0.338122 112.67432191724207 14.171466282264326 11.322633544887289 0 0 0
257 12 5 -0.082 120.43957923571084 13.145138632928461 9.265548011882906 0 0 0
258 12 1 0.5187 119.10748166309811 13.134796719449541 9.94531149332551 0 0 0
259 12 49 -0.5201 118.41889806922283 12.138809876929956 9.958340324844645 0 0 0
260 12 36 -0.696 118.6699675324675 14.289841082556826 10.488134152671481 0 0 0
261 12 5 0.2861 117.30651705114954 14.570538994014061 10.790372517151871 0 0 0
262 12 5 -0.1316 116.51915699078972 13.652490231030429 11.48016238502874 0 0 0
263 12 5 -0.1593 115.13433931819621 13.820281764229625 11.536959553252736 0 0 0
264 12 5 0.2897 114.53273720047034 14.92234177860449 10.935267614629872 0 0 0
265 12 5 -0.1571 115.33949971820498 15.904293419740581 10.356650168094419 0 0 0
266 12 5 -0.1552 116.72119331072663 15.721382301576854 10.269031320978886 0 0 0
270 12 26 0.323322 119.26995933861673 15.089726571519732 10.44206088255724 0 0 0
271 12 24 0.231822 116.98707603194146 12.759236295659111 11.885321520516712 0 0 0
272 12 24 0.200222 114.51404511088198 13.048339456486783 11.980639703771573 0 0 0
274 12 24 0.197322 114.87812903134758 16.77477354162847 9.900050175104045 0 0 0
275 12 24 0.196422 117.3265854618421 16.440040181834902 9.724231190173997 0 0 0
268 12 22 0.183022 123.69892138006212 12.962993469542235 7.244023516113829 0 0 0
277 13 22 0 124.5174898018749 15.07207924592259 8.277523226293711 0 0 0
251 12 1 0.2789 123.55212109752527 15.230117746037374 8.806761575707975 0 0 0
252 12 49 -0.4729 123.34971003868912 16.233618835149773 9.459644934943874 0 0 0
253 12 5 -0.0317 122.54875214970436 14.13713181131312 8.668693251747278 0 0 0
254 12 5 0.0643 122.78815505081815 13.04110270165137 7.8375899300906475 0 0 0
267 12 5 -0.0596 121.3540024782832 14.195379960475355 9.383647303480362 0 0 0
276 12 24 0.206822 121.163746271043 15.050507232390421 10.02830586354161 0 0 0
52 4 24 0.18553 24.809943904512405 11.633761882519744 13.61709879201224 0 0 0
46 4 5 -0.1004 29.674147389247548 10.709198681748884 13.413430137677986 0 0 0
56 4 24 0.17643 28.842619716206194 10.42864085173368 14.054736698015287 0 0 0
79 5 24 0.18823 35.85437877257753 9.544649557550464 14.730562921114494 0 0 0
45 4 5 -0.08169999999999999 30.980263653333516 10.50746340858889 13.870288064792405 0 0 0
55 4 24 0.20153 31.173023775925806 10.067950205300445 14.849039660443193 0 0 0
30 4 1 0.2702 33.462449849137556 10.665660403296297 13.590763388192777 0 0 0
44 4 49 -0.4764 33.726983355613 10.704258302487329 14.77308865112687 0 0 0
66 5 5 -0.1622 36.4496653069757 9.951810887404259 13.919378259034328 0 0 0
67 5 5 -0.1629 37.84148347867604 10.032893221185521 14.030548388231757 0 0 0
75 5 26 0.31233 40.167068309511734 11.016405554782823 14.22196139130185 0 0 0
80 5 24 0.18553 38.33016076150474 9.69853464284312 14.938994341587152 0 0 0
135 7 24 0.18553 59.7064174592364 11.660243623122716 13.599259587345564 0 0 0
139 7 24 0.17643 63.38806716451491 12.029011744282226 14.396969956883346 0 0 0
190 9 24 0.18553 81.93163871736262 11.770225445684357 13.628256143410802 0 0 0
183 9 5 -0.08169999999999999 88.08958971312359 10.486902886462504 13.79401006299471 0 0 0
184 9 5 -0.1004 86.78397730197385 10.718782625867282 13.34782855902475 0 0 0
193 9 24 0.20153 88.27750167705703 10.025229152111924 14.76316828083604 0 0 0
194 9 24 0.17643 85.94955328357561 10.433293793147444 13.983444989250984 0 0 0
204 10 5 -0.1622 93.56564878576904 9.875426276108083 13.846235202153515 0 0 0
205 10 5 -0.1629 94.95927385595917 9.937485409831561 13.956845051641444 0 0 0
217 10 24 0.18823 92.9651216301198 9.47971681302625 14.65893489494506 0 0 0
218 10 24 0.18553 95.44110999098864 9.605762335528022 14.870871596433336 0 0 0
168 9 1 0.2702 90.57747220484084 10.617767221438298 13.513289107922903 0 0 0
182 9 49 -0.4764 90.83993579720844 10.6288588291871 14.696770226743382 0 0 0
213 10 26 0.31233 97.32449348753603 10.75346714576476 14.157609190803878 0 0 0
24 3 24 0.200222 11.866230317776841 13.492962199495544 13.337571408750755 0 0 0
74 5 5 -0.1004 42.05101315708544 12.498578893345194 14.23005531886002 0 0 0
84 5 24 0.17643 41.24858066618401 12.24660481189631 14.916946243189885 0 0 0
85 6 36 -0.7932 46.05738476140924 15.307083145748699 13.725302389523318 0 0 0
107 6 24 0.200222 46.88998129275408 12.809409215857029 14.155589513866987 0 0 0
73 5 5 -0.08169999999999999 43.017293938854586 13.40094465511918 14.661777949555846 0 0 0
83 5 24 0.20153 42.953878748016365 13.823134071092404 15.663454746675518 0 0 0
58 5 1 0.2702 44.89783521186006 14.964248024897914 14.298052562026136 0 0 0
71 5 5 0.0058 44.02855009456823 13.837118181433302 13.8071665487498 0 0 0
72 5 49 -0.4764 44.56872764320342 15.653552386834779 15.237169325877764 0 0 0
108 6 26 0.338122 46.4057289428908 16.18425157328298 14.074287160530943 0 0 0
128 7 5 -0.08169999999999999 65.23529623323074 13.112636520195371 14.450943478439562 0 0 0
129 7 5 -0.1004 64.2337844836251 12.385006092502536 13.8139030050766 0 0 0
138 7 24 0.20153 65.1520961243437 13.340698163033183 15.511570983864438 0 0 0
140 8 36 -0.7932 68.4100818877969 14.979190974020646 14.032719890880086 0 0 0
153 8 5 -0.1593 69.75417868627322 13.077132206064295 13.364760389400866 0 0 0
162 8 24 0.200222 69.33063721475318 12.51423679283506 14.19470071803098 0 0 0
126 7 5 0.0058 66.31638860716733 13.63123588572735 13.734045568372316 0 0 0
113 7 1 0.2702 67.19705145791944 14.617149722564289 14.461309599978597 0 0 0
127 7 49 -0.4764 66.83467259525014 15.160334384314664 15.478054819162185 0 0 0
163 8 26 0.338122 68.81620606751038 15.713258483628177 14.588442464838113 0 0 0
196 10 1 0.2702 101.92609425161501 14.785502066244268 14.768399905665888 0 0 0
209 10 5 0.0058 101.07491359954095 13.723329379926353 14.114010322279896 0 0 0
210 10 49 -0.4764 101.58944141938494 15.30791671032947 15.80764002463085 0 0 0
211 10 5 -0.08169999999999999 99.97830989302092 13.282147006704767 14.85434348718181 0 0 0
212 10 5 -0.1004 99.02956419260933 12.43163398825484 14.303031980931426 0 0 0
221 10 24 0.20153 99.83380775262258 13.65617291757405 15.86566035038508 0 0 0
222 10 24 0.17643 98.1538919028967 12.194359573473008 14.901360357521355 0 0 0
223 11 36 -0.7932 103.07181184249926 15.267666347964447 14.275025155272186 0 0 0
236 11 5 -0.1593 104.67270585009787 13.66758107439218 13.389261183442544 0 0 0
245 11 24 0.200222 104.41284417758398 12.98225833792862 14.191103166365357 0 0 0
246 11 26 0.338122 103.41885298300797 16.02976009468259 14.834066235362352 0 0 0

Velocities

21 -0.0008686056506484807 -0.0009467109945491808 -4.043492321588595e-06
8 -0.00012797553430627276 -0.00018580698430719164 -0.00029085951932614163
20 -0.0005568386552500971 -0.0006355888322017633 0.00038330250556306745
7 -2.0302749078026183e-05 -9.650533284901746e-05 0.0001809007734761924
29 0.0005117060213072892 7.964796747782094e-05 -0.0002661380932884614
37 -3.6539539744346735e-05 -0.00041772344883281786 -0.00044327669643970944
38 0.000275058225747415 0.00018683713866561686 -0.00019485343658085384
50 0.0008512066048980551 -0.0009033540995925974 0.0003027480422353595
51 -0.0011456168945514782 0.0016025914125579464 0.0008387973441330056
36 -0.00013697309203432738 0.00014952653268185534 0.00015221876722018555
49 0.0009549776057752972 0.0006732399589562159 -0.0017895234864287615
3 0.00034783328139414933 -0.00010283509403469319 1.52661085420343e-05
5 0.00017324951099743287 -0.0004534203959473935 -0.00026209106318283315
6 0.00029965971156683955 5.303991918480132e-05 -1.6041298255378034e-05
31 0.000424218942116784 -0.00045353783413612807 0.000321470121863051
32 -0.00027743364632646793 -0.0001555930054891639 3.560898692359917e-06
33 -5.619924523490333e-06 0.0003735518897682435 0.0005123067373248348
34 -0.00020921921393770166 -7.447599788353016e-05 -0.0001150731638198023
35 0.00012351014836874382 0.00023103050775499697 -0.00034409005996264116
39 0.0003871310195906606 0.00014258067308772608 0.00025056037503669743
40 9.25195655142601e-05 0.0003342300764610455 0.00015825516570107962
48 0.0017216904052217198 0.0003000768445504165 0.0001355328901535483
47 8.713214412833144e-05 -0.0009449278557141224 -0.0012779023944699682
41 -0.000283994241472217 -1.6486652898232976e-05 7.433118605636654e-05
53 -0.00029952387585084974 -0.00013606899979189807 0.000836424790610163
57 -0.00010319769686791978 0.00011620257820445255 -0.0003675422490972391
65 -0.00025095770294233943 5.785824899681588e-05 -0.00022026672773006205
78 0.0006101943198871892 -0.00025687554887944536 -2.918604577580036e-05
77 -0.0002034881537792298 -0.0010026502594874158 -0.0010780622330838368
54 -2.24995383509899e-05 0.0006182226655088314 -0.0020499171869949387
42 0.0001931506848653728 0.0003295724134286834 -6.763090854197347e-05
43 -0.00020051702944329998 0.0005563976330161116 0.00045492154515031427
59 -4.3301422920877725e-05 -0.0003031652122122343 -0.0002136508867914972
60 -7.40728877173364e-05 -0.0002727487778101656 -0.00018985949268070492
61 -0.00015064854610750134 -0.00038821796247688704 -0.00032009575975770326
62 0.00017303525048334849 7.614028976443545e-05 -0.00039886379597821407
63 0.0004177767534429353 -0.00030083268349071266 0.00023085933322179974
64 0.0006042615426967595 0.00010437776454459995 0.00036057856239512246
68 -0.00010916241865627865 -0.00017282706234449696 -0.00016878674836993423
76 0.0014063980013348716 -0.0007946776467134893 0.0001222988950416109
81 -0.0007594654715141 0.0009260487455955676 0.0001834379137611159
90 -0.00046945964129381377 0.0004823915264592898 -0.00032522015990248837
104 0.0001793096572722961 -9.197734970857077e-05 0.00024913949996948427
91 0.00034561708143567065 0.0001378499617592241 4.9957571645276386e-05
92 0.00010772614922398037 0.00024259762538260098 -0.00019429823964610453
94 0.00011342290021308922 6.825782090618119e-05 0.00033898746132932203
102 -0.00020366511562719278 -6.26752618717571e-05 1.8894703001675813e-05
106 0.001275449499554002 0.001169801501824957 -0.0010387179539747405
111 0.0012178514432897214 -0.0012595818836558114 0.00038321395374901724
103 -7.627472389399085e-06 0.00015240159020566421 0.0019331021545537532
112 0.0001439626155178225 -8.161322635237997e-05 -9.622796456054497e-05
119 -6.373284718417837e-05 -4.400048748840015e-05 0.0002741451097281453
120 -5.3027528548440176e-05 -0.00022597477781385522 -0.00035488935999138636
121 0.00011639268275697533 -8.97901146910899e-06 -0.00011957346974740273
122 0.00019167183415169238 -0.00031093878972927294 3.2861554755639215e-05
132 -0.00045889480578919996 -0.0017983052628094208 0.0005081234118867047
133 0.00012552432768552028 -0.00022017307067162127 -0.0010031197441304701
134 2.6302467268710222e-05 0.0006026630945474967 -0.0005225632281710523
88 9.480611062811947e-05 -3.734943211286709e-05 -0.00023897736996228035
89 3.094070855559493e-05 -0.0003837247044978488 0.0003016470167892261
86 0.00012134245405957724 0.000158714437634547 0.0002536769921077559
114 0.00014927420436038516 8.914847387502473e-05 -0.00015002379108136418
115 0.0001962470783772282 0.0001351275943170337 6.897458933248221e-05
116 -0.0003245450501415304 8.748085161670218e-05 0.00021428914988155286
117 -0.0004171553985305298 0.0003082883427742436 -0.00022800825604018087
118 0.0002461805065381388 -0.00025068380307570834 -6.897291761391486e-06
131 0.0013203322191781112 0.000986099619361848 0.00015262542406472372
161 0.0023971284086394162 -0.001308130020650446 -0.0002788695942204376
158 -0.00034016825800005704 0.0005430373061178903 -0.0007933874846280545
145 -0.00016719242997258969 0.0001484397781349768 0.0003362945242943968
159 0.0011676128717133469 -6.224434673630514e-05 4.711864715563371e-05
141 -0.00015711754761277456 0.00018744004137440386 0.0002411331293800622
143 4.1630652070399866e-05 -0.0003260419215145574 -2.053265686223327e-05
144 5.495915506875259e-07 0.0004972207501646167 0.0001388085347615817
146 0.00020898258765907846 -1.171343230280713e-05 -0.0002699721119015306
167 8.788051783232802e-05 0.00045731943641536454 -0.00033451108715805503
172 -0.0001798075172338178 -0.00047701832519892915 0.0003047151898390332
173 -8.98822706268632e-05 0.00024125885179819635 -1.8825983626576355e-05
174 -0.0007295925006969329 -0.0004080072580159819 -3.0341549441270933e-05
175 -0.00041178192035373556 -0.0003627915966809551 -4.362861128638998e-05
176 -0.0001786245568234046 5.164305364085183e-05 -0.00032850849769980577
177 4.153254215589446e-05 0.0005827593646296601 -0.00048043199103385374
186 -0.0004289361389189244 -3.3499952895314194e-05 0.0008173333262906717
187 -0.001794684191305231 -0.0010547357395041582 0.0013704584152286737
188 0.001374699300304535 -0.0010206265767232433 -0.000824357263192093
189 -0.0009220426047631511 0.0006980276748836669 -0.0005600957336679521
171 -0.00017794143337863298 8.775893773294119e-05 2.8192026199696754e-05
185 -1.6189665300586412e-05 -0.0015523639979931904 0.000326647213555923
170 0.00017136723299217177 7.458335169365562e-05 -0.0003219482647622642
178 -0.00048481684194715615 -0.00010671943191418673 0.0001985421603704245
179 -4.697416576697096e-05 -0.00031942360494666963 0.00016730882671994374
192 0.0008115115214131054 -0.0002028818591703 -0.0007503732704895055
180 -0.00025641562673898424 0.00010522358894720626 -7.19419092125051e-05
181 0.0005803172104015686 0.0004258941691868453 -0.00011907850064445038
195 0.00018068570916977318 -6.142742912017504e-05 -0.00010122103241999864
200 -8.56065093604238e-05 8.550558531672022e-05 -1.0652183821880375e-05
201 -7.231869062073932e-05 0.0001825544535748055 -0.0002216453097459275
202 -1.3553067596281002e-05 -9.94038476135444e-05 0.00035238075419354145
203 -0.00028901372951238027 0.0002698899754978419 -0.00010999068734663924
214 -0.0001421265957017407 -0.0014305036995751947 0.0003445001566797174
215 -0.000379774422729141 0.0005867514904762858 -0.0004985917223056588
216 -0.00016525865133009348 -0.0009695745409501194 -0.0009699173442953577