LAMMPS Description

     277  atoms
     296  bonds
     470  angles
     696  dihedrals
     105  impropers

     71  atom types
     807  bond types
     4248  angle types
     641  dihedral types
     38  improper types

  0.0 138.615 xlo xhi
  0.0 200 ylo yhi
  0.0 40 zlo zhi

Masses

1 12.01  # c
2 12.01  # c1
3 12.01  # c2
4 12.01  # c3
5 12.01  # ca
6 12.01  # cp
7 12.01  # cq
8 12.01  # cc
9 12.01  # cd
10 12.01  # ce
11 12.01  # cf
12 12.01  # cg
13 12.01  # ch
14 12.01  # cx
15 12.01  # cy
16 12.01  # cu
17 12.01  # cv
18 12.01  # cz
19 1.008  # h1
20 1.008  # h2
21 1.008  # h3
22 1.008  # h4
23 1.008  # h5
24 1.008  # ha
25 1.008  # hc
26 1.008  # hn
27 1.008  # ho
28 1.008  # hp
29 1.008  # hs
30 1.008  # hw
31 1.008  # hx
32 19.00  # f
33 35.45  # cl
34 79.90  # br
35 126.9  # i
36 14.01  # n
37 14.01  # n1
38 14.01  # n2
39 14.01  # n3
40 14.01  # n4
41 14.01  # na
42 14.01  # nb
43 14.01  # nc
44 14.01  # nd
45 14.01  # ne
46 14.01  # nf
47 14.01  # nh
48 14.01  # no
49 16.00  # o
50 16.00  # oh
51 16.00  # os
52 16.00  # ow
53 30.97  # p2
54 30.97  # p3
55 30.97  # p4
56 30.97  # p5
57 30.97  # pb
58 30.97  # pc
59 30.97  # pd
60 30.97  # pe
61 30.97  # pf
62 30.97  # px
63 30.97  # py
64 32.06  # s
65 32.06  # s2
66 32.06  # s4
67 32.06  # s6
68 32.06  # sh
69 32.06  # ss
70 32.06  # sx
71 32.06  # sy

Atoms  # full

1 2 26 0 0.0 0.0 0.0
2 3 36 -0.7932 11.2968 4.9162 3.2656
3 3 1 0.2789 20.483 4.3686 -2.2718
4 3 49 -0.4729 20.2912 5.3898 -1.6124
5 3 5 -0.0317 19.538899999999998 3.2406 -2.0346
6 3 5 0.0643 19.6592 2.0295 -2.7036
7 3 42 -0.3532 18.8156 0.9859 -2.5234
8 3 5 0.0987 17.8042 1.1582 -1.6358
9 3 5 -0.082 17.5871 2.3325 -0.9203
10 3 1 0.5187 16.4361 2.3721 0.0172
11 3 49 -0.5201 16.015 1.2969 0.428
12 3 36 -0.696 15.917200000000001 3.624 0.3113
13 3 5 0.2861 14.7917 3.9005 1.1246
14 3 5 -0.1316 14.0648 2.9282 1.8104
15 3 5 -0.1593 12.926 3.2748 2.5497
16 3 5 0.2897 12.519400000000001 4.6031 2.6631
17 3 5 -0.1571 13.2299 5.5734 1.9569
18 3 5 -0.1552 14.3677 5.2315 1.2119
19 3 5 -0.0596 18.4842 3.3858 -1.1168
20 3 22 0.183022 20.4478 1.8276 -3.423
21 3 22 0.198422 17.1504 0.2954 -1.5195
22 3 26 0.323322 16.3106 4.4279 -0.1572
23 3 24 0.231822 14.3355 1.8782 1.7785
24 3 24 0.200222 12.3573 2.4834 3.0312
25 3 26 0.338122 11.0 4.2462 3.9685
26 3 24 0.197322 12.8974 6.608 1.9692
27 3 24 0.196422 14.8931 6.0228 0.6847
28 3 24 0.206822 18.3948 4.3095 -0.5509
29 4 36 -0.8004 22.5819 -2.5971 0.5926
30 4 1 0.2702 32.365700000000004 2.6958 5.4732
31 4 49 -0.5255 28.509 0.0745 1.1114
32 4 1 0.5056 28.3037 0.0453 2.3195
33 4 36 -0.7051 27.237099999999998 -0.5512 2.9701
34 4 5 0.2847 26.1298 -1.1637 2.3447
35 4 5 -0.1359 26.0081 -1.282 0.9614
36 4 5 -0.164 24.8476 -1.7992 0.3874
37 4 5 0.2878 23.8028 -2.2607 1.1829
38 4 5 -0.1622 23.9198 -2.1435 2.5696
39 4 5 -0.1629 25.084 -1.6231 3.1516
40 4 5 -0.0434 29.3137 0.7035 3.181
41 4 5 -0.073 30.6328 0.7385 2.7107
42 4 5 -0.1135 31.6293 1.3787 3.446
43 4 5 0.0058 31.317 1.9997 4.6614
44 4 49 -0.4764 32.0021 3.2134 6.5249
45 4 5 -0.0817 29.9837 1.9754 5.1234
46 4 5 -0.1004 28.9853 1.3365 4.384
47 4 26 0.31233 27.2221 -0.5369 3.981
48 4 24 0.22553 26.7864 -0.9547 0.2822
49 4 24 0.19193 24.7718 -1.8175 -0.6961
50 4 26 0.33023 22.6687 -2.9124 -0.3689
51 4 24 0.18823 23.0937 -2.4379 3.2112
52 4 24 0.18553 25.1346 -1.5488 4.2343
53 4 24 0.19553 30.8846 0.2743 1.758
54 4 24 0.18303 32.6349 1.3838 3.0364
55 4 24 0.20153 29.7179 2.4747 6.054
56 4 24 0.17643 27.9589 1.3785 4.7386
57 5 36 -0.8004 34.351 -2.5971 0.5926
58 5 1 0.2702 44.1348 2.6958 5.4732
59 5 49 -0.5255 40.2781 0.0745 1.1114
60 5 1 0.5056 40.0728 0.0453 2.3195
61 5 36 -0.7051 39.0062 -0.5512 2.9701
62 5 5 0.2847 37.898900000000005 -1.1637 2.3447
63 5 5 -0.1359 37.7772 -1.282 0.9614
64 5 5 -0.164 36.6167 -1.7992 0.3874
65 5 5 0.2878 35.5719 -2.2607 1.1829
66 5 5 -0.1622 35.688900000000004 -2.1435 2.5696
67 5 5 -0.1629 36.853100000000005 -1.6231 3.1516
68 5 5 -0.0434 41.0828 0.7035 3.181
69 5 5 -0.073 42.4019 0.7385 2.7107
70 5 5 -0.1135 43.3984 1.3787 3.446
71 5 5 0.0058 43.0861 1.9997 4.6614
72 5 49 -0.4764 43.7712 3.2134 6.5249
73 5 5 -0.0817 41.7528 1.9754 5.1234
74 5 5 -0.1004 40.754400000000004 1.3365 4.384
75 5 26 0.31233 38.9912 -0.5369 3.981
76 5 24 0.22553 38.5555 -0.9547 0.2822
77 5 24 0.19193 36.5409 -1.8175 -0.6961
78 5 26 0.33023 34.4378 -2.9124 -0.3689
79 5 24 0.18823 34.8628 -2.4379 3.2112
80 5 24 0.18553 36.9037 -1.5488 4.2343
81 5 24 0.19553 42.6537 0.2743 1.758
82 5 24 0.18303 44.404 1.3838 3.0364
83 5 24 0.20153 41.487 2.4747 6.054
84 5 24 0.17643 39.728 1.3785 4.7386
85 6 36 -0.7932 45.835 4.9162 3.2656
86 6 1 0.2789 55.02120000000001 4.3686 -2.2718
87 6 49 -0.4729 54.82940000000001 5.3898 -1.6124
88 6 5 -0.0317 54.0771 3.2406 -2.0346
89 6 5 0.0643 54.1974 2.0295 -2.7036
90 6 42 -0.3532 53.35380000000001 0.9859 -2.5234
91 6 5 0.0987 52.342400000000005 1.1582 -1.6358
92 6 5 -0.082 52.1253 2.3325 -0.9203
93 6 1 0.5187 50.9743 2.3721 0.0172
94 6 49 -0.5201 50.553200000000004 1.2969 0.428
95 6 36 -0.696 50.455400000000004 3.624 0.3113
96 6 5 0.2861 49.3299 3.9005 1.1246
97 6 5 -0.1316 48.603 2.9282 1.8104
98 6 5 -0.1593 47.464200000000005 3.2748 2.5497
99 6 5 0.2897 47.0576 4.6031 2.6631
100 6 5 -0.1571 47.768100000000004 5.5734 1.9569
101 6 5 -0.1552 48.9059 5.2315 1.2119
102 6 5 -0.0596 53.022400000000005 3.3858 -1.1168
103 6 22 0.183022 54.986000000000004 1.8276 -3.423
104 6 22 0.198422 51.6886 0.2954 -1.5195
105 6 26 0.323322 50.848800000000004 4.4279 -0.1572
106 6 24 0.231822 48.87370000000001 1.8782 1.7785
107 6 24 0.200222 46.895500000000006 2.4834 3.0312
108 6 26 0.338122 45.5382 4.2462 3.9685
109 6 24 0.197322 47.4356 6.608 1.9692
110 6 24 0.196422 49.4313 6.0228 0.6847
111 6 24 0.206822 52.93300000000001 4.3095 -0.5509
112 7 36 -0.8004 57.1201 -2.5971 0.5926
113 7 1 0.2702 66.90390000000001 2.6958 5.4732
114 7 49 -0.5255 63.047200000000004 0.0745 1.1114
115 7 1 0.5056 62.8419 0.0453 2.3195
116 7 36 -0.7051 61.7753 -0.5512 2.9701
117 7 5 0.2847 60.668000000000006 -1.1637 2.3447
118 7 5 -0.1359 60.5463 -1.282 0.9614
119 7 5 -0.164 59.3858 -1.7992 0.3874
120 7 5 0.2878 58.341 -2.2607 1.1829
121 7 5 -0.1622 58.458000000000006 -2.1435 2.5696
122 7 5 -0.1629 59.62220000000001 -1.6231 3.1516
123 7 5 -0.0434 63.8519 0.7035 3.181
124 7 5 -0.073 65.171 0.7385 2.7107
125 7 5 -0.1135 66.1675 1.3787 3.446
126 7 5 0.0058 65.8552 1.9997 4.6614
127 7 49 -0.4764 66.5403 3.2134 6.5249
128 7 5 -0.0817 64.5219 1.9754 5.1234
129 7 5 -0.1004 63.523500000000006 1.3365 4.384
130 7 26 0.31233 61.7603 -0.5369 3.981
131 7 24 0.22553 61.324600000000004 -0.9547 0.2822
132 7 24 0.19193 59.31 -1.8175 -0.6961
133 7 26 0.33023 57.206900000000005 -2.9124 -0.3689
134 7 24 0.18823 57.6319 -2.4379 3.2112
135 7 24 0.18553 59.6728 -1.5488 4.2343
136 7 24 0.19553 65.42280000000001 0.2743 1.758
137 7 24 0.18303 67.1731 1.3838 3.0364
138 7 24 0.20153 64.2561 2.4747 6.054
139 7 24 0.17643 62.4971 1.3785 4.7386
140 8 36 -0.7932 68.6041 4.9162 3.2656
141 8 1 0.2789 77.7903 4.3686 -2.2718
142 8 49 -0.4729 77.5985 5.3898 -1.6124
143 8 5 -0.0317 76.8462 3.2406 -2.0346
144 8 5 0.0643 76.9665 2.0295 -2.7036
145 8 42 -0.3532 76.1229 0.9859 -2.5234
146 8 5 0.0987 75.11149999999999 1.1582 -1.6358
147 8 5 -0.082 74.8944 2.3325 -0.9203
148 8 1 0.5187 73.7434 2.3721 0.0172
149 8 49 -0.5201 73.3223 1.2969 0.428
150 8 36 -0.696 73.22449999999999 3.624 0.3113
151 8 5 0.2861 72.099 3.9005 1.1246
152 8 5 -0.1316 71.3721 2.9282 1.8104
153 8 5 -0.1593 70.2333 3.2748 2.5497
154 8 5 0.2897 69.8267 4.6031 2.6631
155 8 5 -0.1571 70.5372 5.5734 1.9569
156 8 5 -0.1552 71.675 5.2315 1.2119
157 8 5 -0.0596 75.7915 3.3858 -1.1168
158 8 22 0.183022 77.7551 1.8276 -3.423
159 8 22 0.198422 74.4577 0.2954 -1.5195
160 8 26 0.323322 73.61789999999999 4.4279 -0.1572
161 8 24 0.231822 71.6428 1.8782 1.7785
162 8 24 0.200222 69.6646 2.4834 3.0312
163 8 26 0.338122 68.3073 4.2462 3.9685
164 8 24 0.197322 70.2047 6.608 1.9692
165 8 24 0.196422 72.2004 6.0228 0.6847
166 8 24 0.206822 75.7021 4.3095 -0.5509
167 9 36 -0.8004 79.8892 -2.5971 0.5926
168 9 1 0.2702 89.673 2.6958 5.4732
169 9 49 -0.5255 85.8163 0.0745 1.1114
170 9 1 0.5056 85.611 0.0453 2.3195
171 9 36 -0.7051 84.5444 -0.5512 2.9701
172 9 5 0.2847 83.4371 -1.1637 2.3447
173 9 5 -0.1359 83.3154 -1.282 0.9614
174 9 5 -0.164 82.1549 -1.7992 0.3874
175 9 5 0.2878 81.1101 -2.2607 1.1829
176 9 5 -0.1622 81.2271 -2.1435 2.5696
177 9 5 -0.1629 82.3913 -1.6231 3.1516
178 9 5 -0.0434 86.621 0.7035 3.181
179 9 5 -0.073 87.9401 0.7385 2.7107
180 9 5 -0.1135 88.9366 1.3787 3.446
181 9 5 0.0058 88.6243 1.9997 4.6614
182 9 49 -0.4764 89.3094 3.2134 6.5249
183 9 5 -0.0817 87.291 1.9754 5.1234
184 9 5 -0.1004 86.2926 1.3365 4.384
185 9 26 0.31233 84.5294 -0.5369 3.981
186 9 24 0.22553 84.0937 -0.9547 0.2822
187 9 24 0.19193 82.0791 -1.8175 -0.6961
188 9 26 0.33023 79.976 -2.9124 -0.3689
189 9 24 0.18823 80.401 -2.4379 3.2112
190 9 24 0.18553 82.4419 -1.5488 4.2343
191 9 24 0.19553 88.1919 0.2743 1.758
192 9 24 0.18303 89.9422 1.3838 3.0364
193 9 24 0.20153 87.0252 2.4747 6.054
194 9 24 0.17643 85.2662 1.3785 4.7386
195 10 36 -0.8004 91.65830000000001 -2.5971 0.5926
196 10 1 0.2702 101.44210000000001 2.6958 5.4732
197 10 49 -0.5255 97.5854 0.0745 1.1114
198 10 1 0.5056 97.38010000000001 0.0453 2.3195
199 10 36 -0.7051 96.3135 -0.5512 2.9701
200 10 5 0.2847 95.20620000000001 -1.1637 2.3447
201 10 5 -0.1359 95.0845 -1.282 0.9614
202 10 5 -0.164 93.924 -1.7992 0.3874
203 10 5 0.2878 92.87920000000001 -2.2607 1.1829
204 10 5 -0.1622 92.9962 -2.1435 2.5696
205 10 5 -0.1629 94.16040000000001 -1.6231 3.1516
206 10 5 -0.0434 98.3901 0.7035 3.181
207 10 5 -0.073 99.70920000000001 0.7385 2.7107
208 10 5 -0.1135 100.70570000000001 1.3787 3.446
209 10 5 0.0058 100.39340000000001 1.9997 4.6614
210 10 49 -0.4764 101.0785 3.2134 6.5249
211 10 5 -0.0817 99.0601 1.9754 5.1234
212 10 5 -0.1004 98.0617 1.3365 4.384
213 10 26 0.31233 96.2985 -0.5369 3.981
214 10 24 0.22553 95.86280000000001 -0.9547 0.2822
215 10 24 0.19193 93.8482 -1.8175 -0.6961
216 10 26 0.33023 91.74510000000001 -2.9124 -0.3689
217 10 24 0.18823 92.1701 -2.4379 3.2112
218 10 24 0.18553 94.21100000000001 -1.5488 4.2343
219 10 24 0.19553 99.96100000000001 0.2743 1.758
220 10 24 0.18303 101.71130000000001 1.3838 3.0364
221 10 24 0.20153 98.7943 2.4747 6.054
222 10 24 0.17643 97.0353 1.3785 4.7386
223 11 36 -0.7932 103.14280000000001 4.9162 3.2656
224 11 1 0.2789 112.32900000000001 4.3686 -2.2718
225 11 49 -0.4729 112.1372 5.3898 -1.6124
226 11 5 -0.0317 111.3849 3.2406 -2.0346
227 11 5 0.0643 111.5052 2.0295 -2.7036
228 11 42 -0.3532 110.6616 0.9859 -2.5234
229 11 5 0.0987 109.6502 1.1582 -1.6358
230 11 5 -0.082 109.43310000000001 2.3325 -0.9203
231 11 1 0.5187 108.2821 2.3721 0.0172
232 11 49 -0.5201 107.861 1.2969 0.428
233 11 36 -0.696 107.7632 3.624 0.3113
234 11 5 0.2861 106.63770000000001 3.9005 1.1246
235 11 5 -0.1316 105.91080000000001 2.9282 1.8104
236 11 5 -0.1593 104.772 3.2748 2.5497
237 11 5 0.2897 104.36540000000001 4.6031 2.6631
238 11 5 -0.1571 105.0759 5.5734 1.9569
239 11 5 -0.1552 106.2137 5.2315 1.2119
240 11 5 -0.0596 110.3302 3.3858 -1.1168
241 11 22 0.183022 112.2938 1.8276 -3.423
242 11 22 0.198422 108.99640000000001 0.2954 -1.5195
243 11 26 0.323322 108.1566 4.4279 -0.1572
244 11 24 0.231822 106.1815 1.8782 1.7785
245 11 24 0.200222 104.2033 2.4834 3.0312
246 11 26 0.338122 102.846 4.2462 3.9685
247 11 24 0.197322 104.74340000000001 6.608 1.9692
248 11 24 0.196422 106.73910000000001 6.0228 0.6847
249 11 24 0.206822 110.24080000000001 4.3095 -0.5509
250 12 36 -0.7932 114.14280000000001 4.9162 3.2656
251 12 1 0.2789 123.32900000000001 4.3686 -2.2718
252 12 49 -0.4729 123.1372 5.3898 -1.6124
253 12 5 -0.0317 122.3849 3.2406 -2.0346
254 12 5 0.0643 122.5052 2.0295 -2.7036
255 12 42 -0.3532 121.6616 0.9859 -2.5234
256 12 5 0.0987 120.6502 1.1582 -1.6358
257 12 5 -0.082 120.43310000000001 2.3325 -0.9203
258 12 1 0.5187 119.2821 2.3721 0.0172
259 12 49 -0.5201 118.861 1.2969 0.428
260 12 36 -0.696 118.7632 3.624 0.3113
261 12 5 0.2861 117.63770000000001 3.9005 1.1246
262 12 5 -0.1316 116.91080000000001 2.9282 1.8104
263 12 5 -0.1593 115.772 3.2748 2.5497
264 12 5 0.2897 115.36540000000001 4.6031 2.6631
265 12 5 -0.1571 116.0759 5.5734 1.9569
266 12 5 -0.1552 117.2137 5.2315 1.2119
267 12 5 -0.0596 121.3302 3.3858 -1.1168
268 12 22 0.183022 123.2938 1.8276 -3.423
269 12 22 0.198422 119.99640000000001 0.2954 -1.5195
270 12 26 0.323322 119.1566 4.4279 -0.1572
271 12 24 0.231822 117.1815 1.8782 1.7785
272 12 24 0.200222 115.2033 2.4834 3.0312
273 12 26 0.338122 113.846 4.2462 3.9685
274 12 24 0.197322 115.74340000000001 6.608 1.9692
275 12 24 0.196422 117.73910000000001 6.0228 0.6847
276 12 24 0.206822 121.24080000000001 4.3095 -0.5509
277 13 22 0 124.846 0.0 0.0

Bonds

1 368 3 4
2 208 3 5
3 157 5 6
4 179 6 7
5 179 7 8
6 157 8 9
7 208 9 10
8 368 10 11
9 362 10 12
10 176 12 13
11 157 13 14
12 157 14 15
13 157 15 16
14 176 2 16
15 157 16 17
16 157 17 18
17 157 13 18
18 157 9 19
19 157 5 19
20 170 6 20
21 170 8 21
22 452 12 22
23 172 14 23
24 172 15 24
25 452 2 25
26 172 17 26
27 172 18 27
28 172 19 28
29 368 31 32
30 362 32 33
31 176 33 34
32 157 34 35
33 157 35 36
34 157 36 37
35 176 29 37
36 157 37 38
37 157 38 39
38 157 34 39
39 208 32 40
40 157 40 41
41 157 41 42
42 157 42 43
43 208 30 43
44 368 30 44
45 157 43 45
46 157 45 46
47 157 40 46
48 452 33 47
49 172 35 48
50 172 36 49
51 452 29 50
52 172 38 51
53 172 39 52
54 172 41 53
55 172 42 54
56 172 45 55
57 172 46 56
58 368 59 60
59 362 60 61
60 176 61 62
61 157 62 63
62 157 63 64
63 157 64 65
64 176 57 65
65 157 65 66
66 157 66 67
67 157 62 67
68 208 60 68
69 157 68 69
70 157 69 70
71 157 70 71
72 208 58 71
73 368 58 72
74 157 71 73
75 157 73 74
76 157 68 74
77 452 61 75
78 172 63 76
79 172 64 77
80 452 57 78
81 172 66 79
82 172 67 80
83 172 69 81
84 172 70 82
85 172 73 83
86 172 74 84
87 368 86 87
88 208 86 88
89 157 88 89
90 179 89 90
91 179 90 91
92 157 91 92
93 208 92 93
94 368 93 94
95 362 93 95
96 176 95 96
97 157 96 97
98 157 97 98
99 157 98 99
100 176 85 99
101 157 99 100
102 157 100 101
103 157 96 101
104 157 92 102
105 157 88 102
106 170 89 103
107 170 91 104
108 452 95 105
109 172 97 106
110 172 98 107
111 452 85 108
112 172 100 109
113 172 101 110
114 172 102 111
115 368 114 115
116 362 115 116
117 176 116 117
118 157 117 118
119 157 118 119
120 157 119 120
121 176 112 120
122 157 120 121
123 157 121 122
124 157 117 122
125 208 115 123
126 157 123 124
127 157 124 125
128 157 125 126
129 208 113 126
130 368 113 127
131 157 126 128
132 157 128 129
133 157 123 129
134 452 116 130
135 172 118 131
136 172 119 132
137 452 112 133
138 172 121 134
139 172 122 135
140 172 124 136
141 172 125 137
142 172 128 138
143 172 129 139
144 368 141 142
145 208 141 143
146 157 143 144
147 179 144 145
148 179 145 146
149 157 146 147
150 208 147 148
151 368 148 149
152 362 148 150
153 176 150 151
154 157 151 152
155 157 152 153
156 157 153 154
157 176 140 154
158 157 154 155
159 157 155 156
160 157 151 156
161 157 147 157
162 157 143 157
163 170 144 158
164 170 146 159
165 452 150 160
166 172 152 161
167 172 153 162
168 452 140 163
169 172 155 164
170 172 156 165
171 172 157 166
172 368 169 170
173 362 170 171
174 176 171 172
175 157 172 173
176 157 173 174
177 157 174 175
178 176 167 175
179 157 175 176
180 157 176 177
181 157 172 177
182 208 170 178
183 157 178 179
184 157 179 180
185 157 180 181
186 208 168 181
187 368 168 182
188 157 181 183
189 157 183 184
190 157 178 184
191 452 171 185
192 172 173 186
193 172 174 187
194 452 167 188
195 172 176 189
196 172 177 190
197 172 179 191
198 172 180 192
199 172 183 193
200 172 184 194
201 368 197 198
202 362 198 199
203 176 199 200
204 157 200 201
205 157 201 202
206 157 202 203
207 176 195 203
208 157 203 204
209 157 204 205
210 157 200 205
211 208 198 206
212 157 206 207
213 157 207 208
214 157 208 209
215 208 196 209
216 368 196 210
217 157 209 211
218 157 211 212
219 157 206 212
220 452 199 213
221 172 201 214
222 172 202 215
223 452 195 216
224 172 204 217
225 172 205 218
226 172 207 219
227 172 208 220
228 172 211 221
229 172 212 222
230 368 224 225
231 208 224 226
232 157 226 227
233 179 227 228
234 179 228 229
235 157 229 230
236 208 230 231
237 368 231 232
238 362 231 233
239 176 233 234
240 157 234 235
241 157 235 236
242 157 236 237
243 176 223 237
244 157 237 238
245 157 238 239
246 157 234 239
247 157 230 240
248 157 226 240
249 170 227 241
250 170 229 242
251 452 233 243
252 172 235 244
253 172 236 245
254 452 223 246
255 172 238 247
256 172 239 248
257 172 240 249
258 368 251 252
259 208 251 253
260 157 253 254
261 179 254 255
262 179 255 256
263 157 256 257
264 208 257 258
265 368 258 259
266 362 258 260
267 176 260 261
268 157 261 262
269 157 262 263
270 157 263 264
271 176 250 264
272 157 264 265
273 157 265 266
274 157 261 266
275 157 257 267
276 157 253 267
277 170 254 268
278 170 256 269
279 452 260 270
280 172 262 271
281 172 263 272
282 452 250 273
283 172 265 274
284 172 266 275
285 172 267 276
286 452 1 2
287 362 3 29
288 362 30 57
289 362 58 85
290 362 86 112
291 362 113 140
292 362 141 167
293 362 168 195
294 362 196 223
295 362 224 250
296 323 251 277

Angles

1 611 5 19 9
2 611 6 5 19
3 611 8 9 19
4 611 13 14 15
5 611 13 18 17
6 611 14 13 18
7 611 14 15 16
8 611 15 16 17
9 611 16 17 18
10 611 34 35 36
11 611 34 39 38
12 611 35 34 39
13 611 35 36 37
14 611 36 37 38
15 611 37 38 39
16 611 40 41 42
17 611 40 46 45
18 611 41 40 46
19 611 41 42 43
20 611 42 43 45
21 611 43 45 46
22 611 62 63 64
23 611 62 67 66
24 611 63 62 67
25 611 63 64 65
26 611 64 65 66
27 611 65 66 67
28 611 68 69 70
29 611 68 74 73
30 611 69 68 74
31 611 69 70 71
32 611 70 71 73
33 611 71 73 74
34 611 88 102 92
35 611 89 88 102
36 611 91 92 102
37 611 96 97 98
38 611 96 101 100
39 611 97 96 101
40 611 97 98 99
41 611 98 99 100
42 611 99 100 101
43 611 117 118 119
44 611 117 122 121
45 611 118 117 122
46 611 118 119 120
47 611 119 120 121
48 611 120 121 122
49 611 123 124 125
50 611 123 129 128
51 611 124 123 129
52 611 124 125 126
53 611 125 126 128
54 611 126 128 129
55 611 143 157 147
56 611 144 143 157
57 611 146 147 157
58 611 151 152 153
59 611 151 156 155
60 611 152 151 156
61 611 152 153 154
62 611 153 154 155
63 611 154 155 156
64 611 172 173 174
65 611 172 177 176
66 611 173 172 177
67 611 173 174 175
68 611 174 175 176
69 611 175 176 177
70 611 178 179 180
71 611 178 184 183
72 611 179 178 184
73 611 179 180 181
74 611 180 181 183
75 611 181 183 184
76 611 200 201 202
77 611 200 205 204
78 611 201 200 205
79 611 201 202 203
80 611 202 203 204
81 611 203 204 205
82 611 206 207 208
83 611 206 212 211
84 611 207 206 212
85 611 207 208 209
86 611 208 209 211
87 611 209 211 212
88 611 226 240 230
89 611 227 226 240
90 611 229 230 240
91 611 234 235 236
92 611 234 239 238
93 611 235 234 239
94 611 235 236 237
95 611 236 237 238
96 611 237 238 239
97 611 253 267 257
98 611 254 253 267
99 611 256 257 267
100 611 261 262 263
101 611 261 266 265
102 611 262 261 266
103 611 262 263 264
104 611 263 264 265
105 611 264 265 266
106 624 5 6 20
107 624 9 8 21
108 624 88 89 103
109 624 92 91 104
110 624 143 144 158
111 624 147 146 159
112 624 226 227 241
113 624 230 229 242
114 624 253 254 268
115 624 257 256 269
116 625 5 19 28
117 625 9 19 28
118 625 13 14 23
119 625 13 18 27
120 625 14 15 24
121 625 15 14 23
122 625 16 15 24
123 625 16 17 26
124 625 17 18 27
125 625 18 17 26
126 625 34 35 48
127 625 34 39 52
128 625 35 36 49
129 625 36 35 48
130 625 37 36 49
131 625 37 38 51
132 625 38 39 52
133 625 39 38 51
134 625 40 41 53
135 625 40 46 56
136 625 41 42 54
137 625 42 41 53
138 625 43 42 54
139 625 43 45 55
140 625 45 46 56
141 625 46 45 55
142 625 62 63 76
143 625 62 67 80
144 625 63 64 77
145 625 64 63 76
146 625 65 64 77
147 625 65 66 79
148 625 66 67 80
149 625 67 66 79
150 625 68 69 81
151 625 68 74 84
152 625 69 70 82
153 625 70 69 81
154 625 71 70 82
155 625 71 73 83
156 625 73 74 84
157 625 74 73 83
158 625 88 102 111
159 625 92 102 111
160 625 96 97 106
161 625 96 101 110
162 625 97 98 107
163 625 98 97 106
164 625 99 98 107
165 625 99 100 109
166 625 100 101 110
167 625 101 100 109
168 625 117 118 131
169 625 117 122 135
170 625 118 119 132
171 625 119 118 131
172 625 120 119 132
173 625 120 121 134
174 625 121 122 135
175 625 122 121 134
176 625 123 124 136
177 625 123 129 139
178 625 124 125 137
179 625 125 124 136
180 625 126 125 137
181 625 126 128 138
182 625 128 129 139
183 625 129 128 138
184 625 143 157 166
185 625 147 157 166
186 625 151 152 161
187 625 151 156 165
188 625 152 153 162
189 625 153 152 161
190 625 154 153 162
191 625 154 155 164
192 625 155 156 165
193 625 156 155 164
194 625 172 173 186
195 625 172 177 190
196 625 173 174 187
197 625 174 173 186
198 625 175 174 187
199 625 175 176 189
200 625 176 177 190
201 625 177 176 189
202 625 178 179 191
203 625 178 184 194
204 625 179 180 192
205 625 180 179 191
206 625 181 180 192
207 625 181 183 193
208 625 183 184 194
209 625 184 183 193
210 625 200 201 214
211 625 200 205 218
212 625 201 202 215
213 625 202 201 214
214 625 203 202 215
215 625 203 204 217
216 625 204 205 218
217 625 205 204 217
218 625 206 207 219
219 625 206 212 222
220 625 207 208 220
221 625 208 207 219
222 625 209 208 220
223 625 209 211 221
224 625 211 212 222
225 625 212 211 221
226 625 226 240 249
227 625 230 240 249
228 625 234 235 244
229 625 234 239 248
230 625 235 236 245
231 625 236 235 244
232 625 237 236 245
233 625 237 238 247
234 625 238 239 248
235 625 239 238 247
236 625 253 267 276
237 625 257 267 276
238 625 261 262 271
239 625 261 266 275
240 625 262 263 272
241 625 263 262 271
242 625 264 263 272
243 625 264 265 274
244 625 265 266 275
245 625 266 265 274
246 630 12 13 14
247 630 2 16 15
248 630 2 16 17
249 630 12 13 18
250 630 33 34 35
251 630 29 37 36
252 630 29 37 38
253 630 33 34 39
254 630 61 62 63
255 630 57 65 64
256 630 57 65 66
257 630 61 62 67
258 630 95 96 97
259 630 85 99 98
260 630 85 99 100
261 630 95 96 101
262 630 116 117 118
263 630 112 120 119
264 630 112 120 121
265 630 116 117 122
266 630 150 151 152
267 630 140 154 153
268 630 140 154 155
269 630 150 151 156
270 630 171 172 173
271 630 167 175 174
272 630 167 175 176
273 630 171 172 177
274 630 199 200 201
275 630 195 203 202
276 630 195 203 204
277 630 199 200 205
278 630 233 234 235
279 630 223 237 236
280 630 223 237 238
281 630 233 234 239
282 630 260 261 262
283 630 250 264 263
284 630 250 264 265
285 630 260 261 266
286 632 5 6 7
287 632 7 8 9
288 632 88 89 90
289 632 90 91 92
290 632 143 144 145
291 632 145 146 147
292 632 226 227 228
293 632 228 229 230
294 632 253 254 255
295 632 255 256 257
296 659 3 5 6
297 659 3 5 19
298 659 8 9 10
299 659 10 9 19
300 659 30 43 42
301 659 30 43 45
302 659 32 40 41
303 659 32 40 46
304 659 58 71 70
305 659 58 71 73
306 659 60 68 69
307 659 60 68 74
308 659 86 88 89
309 659 86 88 102
310 659 91 92 93
311 659 93 92 102
312 659 113 126 125
313 659 113 126 128
314 659 115 123 124
315 659 115 123 129
316 659 141 143 144
317 659 141 143 157
318 659 146 147 148
319 659 148 147 157
320 659 168 181 180
321 659 168 181 183
322 659 170 178 179
323 659 170 178 184
324 659 196 209 208
325 659 196 209 211
326 659 198 206 207
327 659 198 206 212
328 659 224 226 227
329 659 224 226 240
330 659 229 230 231
331 659 231 230 240
332 659 251 253 254
333 659 251 253 267
334 659 256 257 258
335 659 258 257 267
336 689 7 6 20
337 689 7 8 21
338 689 90 89 103
339 689 90 91 104
340 689 145 144 158
341 689 145 146 159
342 689 228 227 241
343 689 228 229 242
344 689 255 254 268
345 689 255 256 269
346 783 253 251 277
347 785 5 3 29
348 785 9 10 12
349 785 33 32 40
350 785 43 30 57
351 785 61 60 68
352 785 71 58 85
353 785 88 86 112
354 785 92 93 95
355 785 116 115 123
356 785 126 113 140
357 785 143 141 167
358 785 147 148 150
359 785 171 170 178
360 785 181 168 195
361 785 199 198 206
362 785 209 196 223
363 785 226 224 250
364 785 230 231 233
365 785 257 258 260
366 787 4 3 5
367 787 9 10 11
368 787 31 32 40
369 787 43 30 44
370 787 59 60 68
371 787 71 58 72
372 787 87 86 88
373 787 92 93 94
374 787 114 115 123
375 787 126 113 127
376 787 142 141 143
377 787 147 148 149
378 787 169 170 178
379 787 181 168 182
380 787 197 198 206
381 787 209 196 210
382 787 225 224 226
383 787 230 231 232
384 787 252 251 253
385 787 257 258 259
386 1339 252 251 277
387 1379 11 10 12
388 1379 4 3 29
389 1379 31 32 33
390 1379 44 30 57
391 1379 59 60 61
392 1379 72 58 85
393 1379 94 93 95
394 1379 87 86 112
395 1379 114 115 116
396 1379 127 113 140
397 1379 149 148 150
398 1379 142 141 167
399 1379 169 170 171
400 1379 182 168 195
401 1379 197 198 199
402 1379 210 196 223
403 1379 232 231 233
404 1379 225 224 250
405 1379 259 258 260
406 2325 6 7 8
407 2325 89 90 91
408 2325 144 145 146
409 2325 227 228 229
410 2325 254 255 256
411 2364 13 12 22
412 2364 16 2 25
413 2364 1 2 16
414 2364 34 33 47
415 2364 37 29 50
416 2364 62 61 75
417 2364 65 57 78
418 2364 96 95 105
419 2364 99 85 108
420 2364 117 116 130
421 2364 120 112 133
422 2364 151 150 160
423 2364 154 140 163
424 2364 172 171 185
425 2364 175 167 188
426 2364 200 199 213
427 2364 203 195 216
428 2364 234 233 243
429 2364 237 223 246
430 2364 261 260 270
431 2364 264 250 273
432 2383 3 29 37
433 2383 10 12 13
434 2383 30 57 65
435 2383 32 33 34
436 2383 58 85 99
437 2383 60 61 62
438 2383 86 112 120
439 2383 93 95 96
440 2383 113 140 154
441 2383 115 116 117
442 2383 141 167 175
443 2383 148 150 151
444 2383 168 195 203
445 2383 170 171 172
446 2383 196 223 237
447 2383 198 199 200
448 2383 224 250 264
449 2383 231 233 234
450 2383 258 260 261
451 2455 3 29 50
452 2455 10 12 22
453 2455 30 57 78
454 2455 32 33 47
455 2455 58 85 108
456 2455 60 61 75
457 2455 86 112 133
458 2455 93 95 105
459 2455 113 140 163
460 2455 115 116 130
461 2455 141 167 188
462 2455 148 150 160
463 2455 168 195 216
464 2455 170 171 185
465 2455 196 223 246
466 2455 198 199 213
467 2455 224 250 273
468 2455 231 233 243
469 2455 258 260 270
470 2742 1 2 25

Dihedrals

1 13 4 3 5 6
2 13 4 3 5 19
3 13 8 9 10 11
4 13 11 10 9 19
5 13 31 32 40 41
6 13 31 32 40 46
7 13 42 43 30 44
8 13 44 30 43 45
9 13 59 60 68 69
10 13 59 60 68 74
11 13 70 71 58 72
12 13 72 58 71 73
13 13 87 86 88 89
14 13 87 86 88 102
15 13 91 92 93 94
16 13 94 93 92 102
17 13 114 115 123 124
18 13 114 115 123 129
19 13 125 126 113 127
20 13 127 113 126 128
21 13 142 141 143 144
22 13 142 141 143 157
23 13 146 147 148 149
24 13 149 148 147 157
25 13 169 170 178 179
26 13 169 170 178 184
27 13 180 181 168 182
28 13 182 168 181 183
29 13 197 198 206 207
30 13 197 198 206 212
31 13 208 209 196 210
32 13 210 196 209 211
33 13 225 224 226 227
34 13 225 224 226 240
35 13 229 230 231 232
36 13 232 231 230 240
37 13 252 251 253 254
38 13 252 251 253 267
39 13 256 257 258 259
40 13 259 258 257 267
41 13 8 9 10 12
42 13 12 10 9 19
43 13 6 5 3 29
44 13 19 5 3 29
45 13 33 32 40 41
46 13 33 32 40 46
47 13 42 43 30 57
48 13 45 43 30 57
49 13 61 60 68 69
50 13 61 60 68 74
51 13 70 71 58 85
52 13 73 71 58 85
53 13 91 92 93 95
54 13 95 93 92 102
55 13 89 88 86 112
56 13 102 88 86 112
57 13 116 115 123 124
58 13 116 115 123 129
59 13 125 126 113 140
60 13 128 126 113 140
61 13 146 147 148 150
62 13 150 148 147 157
63 13 144 143 141 167
64 13 157 143 141 167
65 13 171 170 178 179
66 13 171 170 178 184
67 13 180 181 168 195
68 13 183 181 168 195
69 13 199 198 206 207
70 13 199 198 206 212
71 13 208 209 196 223
72 13 211 209 196 223
73 13 229 230 231 233
74 13 233 231 230 240
75 13 227 226 224 250
76 13 240 226 224 250
77 13 256 257 258 260
78 13 260 258 257 267
79 13 254 253 251 277
80 13 267 253 251 277
81 16 4 3 29 37
82 16 11 10 12 13
83 16 31 32 33 34
84 16 44 30 57 65
85 16 59 60 61 62
86 16 72 58 85 99
87 16 87 86 112 120
88 16 94 93 95 96
89 16 114 115 116 117
90 16 127 113 140 154
91 16 142 141 167 175
92 16 149 148 150 151
93 16 169 170 171 172
94 16 182 168 195 203
95 16 197 198 199 200
96 16 210 196 223 237
97 16 225 224 250 264
98 16 232 231 233 234
99 16 259 258 260 261
100 16 5 3 29 37
101 16 9 10 12 13
102 16 34 33 32 40
103 16 43 30 57 65
104 16 62 61 60 68
105 16 71 58 85 99
106 16 88 86 112 120
107 16 92 93 95 96
108 16 117 116 115 123
109 16 126 113 140 154
110 16 143 141 167 175
111 16 147 148 150 151
112 16 172 171 170 178
113 16 181 168 195 203
114 16 200 199 198 206
115 16 209 196 223 237
116 16 226 224 250 264
117 16 230 231 233 234
118 16 257 258 260 261
119 16 5 3 29 50
120 16 9 10 12 22
121 16 40 32 33 47
122 16 43 30 57 78
123 16 68 60 61 75
124 16 71 58 85 108
125 16 88 86 112 133
126 16 92 93 95 105
127 16 123 115 116 130
128 16 126 113 140 163
129 16 143 141 167 188
130 16 147 148 150 160
131 16 178 170 171 185
132 16 181 168 195 216
133 16 206 198 199 213
134 16 209 196 223 246
135 16 226 224 250 273
136 16 230 231 233 243
137 16 257 258 260 270
138 195 2 16 15 14
139 195 2 16 17 18
140 195 12 13 14 15
141 195 12 13 18 17
142 195 29 37 36 35
143 195 29 37 38 39
144 195 33 34 35 36
145 195 33 34 39 38
146 195 57 65 64 63
147 195 57 65 66 67
148 195 61 62 63 64
149 195 61 62 67 66
150 195 85 99 98 97
151 195 85 99 100 101
152 195 95 96 97 98
153 195 95 96 101 100
154 195 112 120 119 118
155 195 112 120 121 122
156 195 116 117 118 119
157 195 116 117 122 121
158 195 140 154 153 152
159 195 140 154 155 156
160 195 150 151 152 153
161 195 150 151 156 155
162 195 167 175 174 173
163 195 167 175 176 177
164 195 171 172 173 174
165 195 171 172 177 176
166 195 195 203 202 201
167 195 195 203 204 205
168 195 199 200 201 202
169 195 199 200 205 204
170 195 223 237 236 235
171 195 223 237 238 239
172 195 233 234 235 236
173 195 233 234 239 238
174 195 250 264 263 262
175 195 250 264 265 266
176 195 260 261 262 263
177 195 260 261 266 265
178 195 2 16 15 24
179 195 2 16 17 26
180 195 12 13 14 23
181 195 12 13 18 27
182 195 29 37 36 49
183 195 29 37 38 51
184 195 33 34 35 48
185 195 33 34 39 52
186 195 57 65 64 77
187 195 57 65 66 79
188 195 61 62 63 76
189 195 61 62 67 80
190 195 85 99 98 107
191 195 85 99 100 109
192 195 95 96 97 106