LAMMPS Description

1560 atoms
1680 bonds
2680 angles
4000 dihedrals
640 impropers
71 atom types
807 bond types
4248 angle types
641 dihedral types
38 improper types

0 140.789 xlo xhi
0 200 ylo yhi
0 40 zlo zhi

Masses

1 12.01
2 12.01
3 12.01
4 12.01
5 12.01
6 12.01
7 12.01
8 12.01
9 12.01
10 12.01
11 12.01
12 12.01
13 12.01
14 12.01
15 12.01
16 12.01
17 12.01
18 12.01
19 1.008
20 1.008
21 1.008
22 1.008
23 1.008
24 1.008
25 1.008
26 1.008
27 1.008
28 1.008
29 1.008
30 1.008
31 1.008
32 19
33 35.45
34 79.9
35 126.9
36 14.01
37 14.01
38 14.01
39 14.01
40 14.01
41 14.01
42 14.01
43 14.01
44 14.01
45 14.01
46 14.01
47 14.01
48 14.01
49 16
50 16
51 16
52 16
53 30.97
54 30.97
55 30.97
56 30.97
57 30.97
58 30.97
59 30.97
60 30.97
61 30.97
62 30.97
63 30.97
64 32.06
65 32.06
66 32.06
67 32.06
68 32.06
69 32.06
70 32.06
71 32.06

Atoms # full

1   1   36   -0.8004   0.5819   -2.5971   0.5926
2   1   1   0.2702   10.3657   2.6958   5.4732
3   1   49   -0.5255   6.509   0.0745   1.1114
4   1   1   0.5056   6.3037   0.0453   2.3195
5   1   36   -0.7051   5.2371   -0.5512   2.9701
6   1   5   0.2847   4.1298   -1.1637   2.3447
7   1   5   -0.1359   4.0081   -1.282   0.9614
8   1   5   -0.164   2.8476   -1.7992   0.3874
9   1   5   0.2878   1.8028   -2.2607   1.1829
10   1   5   -0.1622   1.9198   -2.1435   2.5696
11   1   5   -0.1629   3.084   -1.6231   3.1516
12   1   5   -0.0434   7.3137   0.7035   3.181
13   1   5   -0.073   8.6328   0.7385   2.7107
14   1   5   -0.1135   9.6293   1.3787   3.446
15   1   5   0.0058   9.317   1.9997   4.6614
16   1   49   -0.4764   10.0021   3.2134   6.5249
17   1   5   -0.0817   7.9837   1.9754   5.1234
18   1   5   -0.1004   6.9853   1.3365   4.384
19   1   26   0.31233   5.2221   -0.5369   3.981
20   1   24   0.22553   4.7864   -0.9547   0.2822
21   1   24   0.19193   2.7718   -1.8175   -0.6961
22   1   26   0.33023   0.6687   -2.9124   -0.3689
23   1   24   0.18823   1.0937   -2.4379   3.2112
24   1   24   0.18553   3.1346   -1.5488   4.2343
25   1   24   0.19553   8.8846   0.2743   1.758
26   1   24   0.18303   10.6349   1.3838   3.0364
27   1   24   0.20153   7.7179   2.4747   6.054
28   1   24   0.17643   5.9589   1.3785   4.7386
29   1   36   -0.8026   11.5092   -1.1731   5.4557
30   1   1   0.2665   24.9036   5.2567   -4.6369
31   1   49   -0.5269   22.5375   1.2014   -0.3579
32   1   1   0.502   22.9062   2.331   -0.0709
33   1   36   -0.7069   22.9146   2.9107   1.1898
34   1   5   0.2836   22.4619   2.2724   2.3659
35   1   5   -0.1388   21.6962   1.1074   2.3372
36   1   5   -0.1652   21.3446   0.4521   3.5149
37   1   5   0.2589   21.6652   1.0061   4.7525
38   1   51   -0.5259   21.3018   0.4499   5.962
39   1   5   0.2582   20.136   -0.2845   6.0351
40   1   5   -0.1662   18.989   0.0174   5.2976
41   1   5   -0.1682   17.8854   -0.8299   5.338
42   1   5   0.2593   17.854   -1.896   6.2379
43   1   51   -0.5271   16.7843   -2.7505   6.3859
44   1   5   0.2573   15.5035   -2.2931   6.1664
45   1   5   -0.1645   15.0738   -0.9898   6.4265
46   1   5   -0.167   13.7617   -0.6101   6.1364
47   1   5   0.2832   12.853   -1.5293   5.6108
48   1   5   -0.1693   13.2537   -2.8613   5.4757
49   1   5   -0.1408   14.5768   -3.2367   5.7249
50   1   5   -0.1455   18.9798   -2.169   7.0205
51   1   5   -0.1463   20.1231   -1.3687   6.9144
52   1   5   -0.1416   22.4246   2.1764   4.797
53   1   5   -0.1691   22.8185   2.8108   3.6077
54   1   5   -0.0452   23.4673   3.1399   -1.1771
55   1   5   -0.074   24.1729   2.4555   -2.1741
56   1   5   -0.1152   24.6564   3.1305   -3.2934
57   1   5   0.0052   24.4274   4.5028   -3.432
58   1   49   -0.4781   24.6671   6.4634   -4.6672
59   1   5   -0.0833   23.7191   5.1885   -2.4265
60   1   5   -0.1022   23.2378   4.5114   -1.2981
61   1   26   0.300661   23.4191   3.779   1.3083
62   1   24   0.208861   21.3432   0.6719   1.4084
63   1   24   0.180561   20.7943   -0.4812   3.4318
64   1   24   0.175561   18.9527   0.8872   4.6465
65   1   24   0.174661   17.0533   -0.6283   4.6701
66   1   24   0.176161   15.7478   -0.251   6.8497
67   1   24   0.173161   13.4575   0.4147   6.33
68   1   26   0.314361   11.3706   -0.1877   5.2576
69   1   24   0.175361   12.5383   -3.6195   5.1688
70   1   24   0.183961   14.8802   -4.273   5.5867
71   1   24   0.185961   18.9707   -3.0113   7.7073
72   1   24   0.185961   21.0016   -1.5977   7.5115
73   1   24   0.184161   22.7161   2.5934   5.7576
74   1   24   0.173661   23.4219   3.7121   3.676
75   1   24   0.180661   24.3315   1.3781   -2.0871
76   1   24   0.169061   25.1891   2.5533   -4.0458
77   1   24   0.187761   23.5149   6.2544   -2.5289
78   1   24   0.165161   22.6491   5.0528   -0.5617
79   1   36   -0.8004   39.5116   -2.5971   0.5926
80   1   1   0.2702   49.2954   2.6958   5.4732
81   1   49   -0.5255   45.4387   0.0745   1.1114
82   1   1   0.5056   45.2334   0.0453   2.3195
83   1   36   -0.7051   44.1668   -0.5512   2.9701
84   1   5   0.2847   43.0595   -1.1637   2.3447
85   1   5   -0.1359   42.9378   -1.282   0.9614
86   1   5   -0.164   41.7773   -1.7992   0.3874
87   1   5   0.2878   40.7325   -2.2607   1.1829
88   1   5   -0.1622   40.8495   -2.1435   2.5696
89   1   5   -0.1629   42.0137   -1.6231   3.1516
90   1   5   -0.0434   46.2434   0.7035   3.181
91   1   5   -0.073   47.5625   0.7385   2.7107
92   1   5   -0.1135   48.559   1.3787   3.446
93   1   5   0.0058   48.2467   1.9997   4.6614
94   1   49   -0.4764   48.9318   3.2134   6.5249
95   1   5   -0.0817   46.9134   1.9754   5.1234
96   1   5   -0.1004   45.915   1.3365   4.384
97   1   26   0.31233   44.1518   -0.5369   3.981
98   1   24   0.22553   43.7161   -0.9547   0.2822
99   1   24   0.19193   41.7015   -1.8175   -0.6961
100   1   26   0.33023   39.5984   -2.9124   -0.3689
101   1   24   0.18823   40.0234   -2.4379   3.2112
102   1   24   0.18553   42.0643   -1.5488   4.2343
103   1   24   0.19553   47.8143   0.2743   1.758
104   1   24   0.18303   49.5646   1.3838   3.0364
105   1   24   0.20153   46.6476   2.4747   6.054
106   1   24   0.17643   44.8886   1.3785   4.7386
107   1   36   -0.8026   50.4389   -1.1731   5.4557
108   1   1   0.2665   63.8333   5.2567   -4.6369
109   1   49   -0.5269   61.4672   1.2014   -0.3579
110   1   1   0.502   61.8359   2.331   -0.0709
111   1   36   -0.7069   61.8443   2.9107   1.1898
112   1   5   0.2836   61.3916   2.2724   2.3659
113   1   5   -0.1388   60.6259   1.1074   2.3372
114   1   5   -0.1652   60.2743   0.4521   3.5149
115   1   5   0.2589   60.5949   1.0061   4.7525
116   1   51   -0.5259   60.2315   0.4499   5.962
117   1   5   0.2582   59.0657   -0.2845   6.0351
118   1   5   -0.1662   57.9187   0.0174   5.2976
119   1   5   -0.1682   56.8151   -0.8299   5.338
120   1   5   0.2593   56.7837   -1.896   6.2379
121   1   51   -0.5271   55.714   -2.7505   6.3859
122   1   5   0.2573   54.4332   -2.2931   6.1664
123   1   5   -0.1645   54.0035   -0.9898   6.4265
124   1   5   -0.167   52.6914   -0.6101   6.1364
125   1   5   0.2832   51.7827   -1.5293   5.6108
126   1   5   -0.1693   52.1834   -2.8613   5.4757
127   1   5   -0.1408   53.5065   -3.2367   5.7249
128   1   5   -0.1455   57.9095   -2.169   7.0205
129   1   5   -0.1463   59.0528   -1.3687   6.9144
130   1   5   -0.1416   61.3543   2.1764   4.797
131   1   5   -0.1691   61.7482   2.8108   3.6077
132   1   5   -0.0452   62.397   3.1399   -1.1771
133   1   5   -0.074   63.1026   2.4555   -2.1741
134   1   5   -0.1152   63.5861   3.1305   -3.2934
135   1   5   0.0052   63.3571   4.5028   -3.432
136   1   49   -0.4781   63.5968   6.4634   -4.6672
137   1   5   -0.0833   62.6488   5.1885   -2.4265
138   1   5   -0.1022   62.1675   4.5114   -1.2981
139   1   26   0.300661   62.3488   3.779   1.3083
140   1   24   0.208861   60.2729   0.6719   1.4084
141   1   24   0.180561   59.724   -0.4812   3.4318
142   1   24   0.175561   57.8824   0.8872   4.6465
143   1   24   0.174661   55.983   -0.6283   4.6701
144   1   24   0.176161   54.6775   -0.251   6.8497
145   1   24   0.173161   52.3872   0.4147   6.33
146   1   26   0.314361   50.3003   -0.1877   5.2576
147   1   24   0.175361   51.468   -3.6195   5.1688
148   1   24   0.183961   53.8099   -4.273   5.5867
149   1   24   0.185961   57.9004   -3.0113   7.7073
150   1   24   0.185961   59.9313   -1.5977   7.5115
151   1   24   0.184161   61.6458   2.5934   5.7576
152   1   24   0.173661   62.3516   3.7121   3.676
153   1   24   0.180661   63.2612   1.3781   -2.0871
154   1   24   0.169061   64.1188   2.5533   -4.0458
155   1   24   0.187761   62.4446   6.2544   -2.5289
156   1   24   0.165161   61.5788   5.0528   -0.5617
157   1   36   -0.8004   78.4413   -2.5971   0.5926
158   1   1   0.2702   88.2251   2.6958   5.4732
159   1   49   -0.5255   84.3684   0.0745   1.1114
160   1   1   0.5056   84.1631   0.0453   2.3195
161   1   36   -0.7051   83.0965   -0.5512   2.9701
162   1   5   0.2847   81.9892   -1.1637   2.3447
163   1   5   -0.1359   81.8675   -1.282   0.9614
164   1   5   -0.164   80.707   -1.7992   0.3874
165   1   5   0.2878   79.6622   -2.2607   1.1829
166   1   5   -0.1622   79.7792   -2.1435   2.5696
167   1   5   -0.1629   80.9434   -1.6231   3.1516
168   1   5   -0.0434   85.1731   0.7035   3.181
169   1   5   -0.073   86.4922   0.7385   2.7107
170   1   5   -0.1135   87.4887   1.3787   3.446
171   1   5   0.0058   87.1764   1.9997   4.6614
172   1   49   -0.4764   87.8615   3.2134   6.5249
173   1   5   -0.0817   85.8431   1.9754   5.1234
174   1   5   -0.1004   84.8447   1.3365   4.384
175   1   26   0.31233   83.0815   -0.5369   3.981
176   1   24   0.22553   82.6458   -0.9547   0.2822
177   1   24   0.19193   80.6312   -1.8175   -0.6961
178   1   26   0.33023   78.5281   -2.9124   -0.3689
179   1   24   0.18823   78.9531   -2.4379   3.2112
180   1   24   0.18553   80.994   -1.5488   4.2343
181   1   24   0.19553   86.744   0.2743   1.758
182   1   24   0.18303   88.4943   1.3838   3.0364
183   1   24   0.20153   85.5773   2.4747   6.054
184   1   24   0.17643   83.8183   1.3785   4.7386
185   1   36   -0.8026   89.3686   -1.1731   5.4557
186   1   1   0.2665   102.763   5.2567   -4.6369
187   1   49   -0.5269   100.397   1.2014   -0.3579
188   1   1   0.502   100.766   2.331   -0.0709
189   1   36   -0.7069   100.774   2.9107   1.1898
190   1   5   0.2836   100.321   2.2724   2.3659
191   1   5   -0.1388   99.5556   1.1074   2.3372
192   1   5   -0.1652   99.204   0.4521   3.5149
193   1   5   0.2589   99.5246   1.0061   4.7525
194   1   51   -0.5259   99.1612   0.4499   5.962
195   1   5   0.2582   97.9954   -0.2845   6.0351
196   1   5   -0.1662   96.8484   0.0174   5.2976
197   1   5   -0.1682   95.7448   -0.8299   5.338
198   1   5   0.2593   95.7134   -1.896   6.2379
199   1   51   -0.5271   94.6437   -2.7505   6.3859
200   1   5   0.2573   93.3629   -2.2931   6.1664
201   1   5   -0.1645   92.9332   -0.9898   6.4265
202   1   5   -0.167   91.6211   -0.6101   6.1364
203   1   5   0.2832   90.7124   -1.5293   5.6108
204   1   5   -0.1693   91.1131   -2.8613   5.4757
205   1   5   -0.1408   92.4362   -3.2367   5.7249
206   1   5   -0.1455   96.8392   -2.169   7.0205
207   1   5   -0.1463   97.9825   -1.3687   6.9144
208   1   5   -0.1416   100.284   2.1764   4.797
209   1   5   -0.1691   100.678   2.8108   3.6077
210   1   5   -0.0452   101.327   3.1399   -1.1771
211   1   5   -0.074   102.032   2.4555   -2.1741
212   1   5   -0.1152   102.516   3.1305   -3.2934
213   1   5   0.0052   102.287   4.5028   -3.432
214   1   49   -0.4781   102.526   6.4634   -4.6672
215   1   5   -0.0833   101.578   5.1885   -2.4265
216   1   5   -0.1022   101.097   4.5114   -1.2981
217   1   26   0.300661   101.278   3.779   1.3083
218   1   24   0.208861   99.2026   0.6719   1.4084
219   1   24   0.180561   98.6537   -0.4812   3.4318
220   1   24   0.175561   96.8121   0.8872   4.6465
221   1   24   0.174661   94.9127   -0.6283   4.6701
222   1   24   0.176161   93.6072   -0.251   6.8497
223   1   24   0.173161   91.3169   0.4147   6.33
224   1   26   0.314361   89.23   -0.1877   5.2576
225   1   24   0.175361   90.3977   -3.6195   5.1688
226   1   24   0.183961   92.7396   -4.273   5.5867
227   1   24   0.185961   96.8301   -3.0113   7.7073
228   1   24   0.185961   98.861   -1.5977   7.5115
229   1   24   0.184161   100.575   2.5934   5.7576
230   1   24   0.173661   101.281   3.7121   3.676
231   1   24   0.180661   102.191   1.3781   -2.0871
232   1   24   0.169061   103.048   2.5533   -4.0458
233   1   24   0.187761   101.374   6.2544   -2.5289
234   1   24   0.165161   100.508   5.0528   -0.5617
235   1   36   -0.8004   117.371   -2.5971   0.5926
236   1   1   0.2702   127.155   2.6958   5.4732
237   1   49   -0.5255   123.298   0.0745   1.1114
238   1   1   0.5056   123.093   0.0453   2.3195
239   1   36   -0.7051   122.026   -0.5512   2.9701
240   1   5   0.2847   120.919   -1.1637   2.3447
241   1   5   -0.1359   120.797   -1.282   0.9614
242   1   5   -0.164   119.637   -1.7992   0.3874
243   1   5   0.2878   118.592   -2.2607   1.1829
244   1   5   -0.1622   118.709   -2.1435   2.5696
245   1   5   -0.1629   119.873   -1.6231   3.1516
246   1   5   -0.0434   124.103   0.7035   3.181
247   1   5   -0.073   125.422   0.7385   2.7107
248   1   5   -0.1135   126.418   1.3787   3.446
249   1   5   0.0058   126.106   1.9997   4.6614
250   1   49   -0.4764   126.791   3.2134   6.5249
251   1   5   -0.0817   124.773   1.9754   5.1234
252   1   5   -0.1004   123.774   1.3365   4.384
253   1   26   0.31233   122.011   -0.5369   3.981
254   1   24   0.22553   121.575   -0.9547   0.2822
255   1   24   0.19193   119.561   -1.8175   -0.6961
256   1   26   0.33023   117.458   -2.9124   -0.3689
257   1   24   0.18823   117.883   -2.4379   3.2112
258   1   24   0.18553   119.924   -1.5488   4.2343
259   1   24   0.19553   125.674   0.2743   1.758
260   1   24   0.18303   127.424   1.3838   3.0364
261   1   24   0.20153   124.507   2.4747   6.054
262   1   24   0.17643   122.748   1.3785   4.7386
263   1   36   -0.8026   128.298   -1.1731   5.4557
264   1   1   0.2665   141.693   5.2567   -4.6369
265   1   49   -0.5269   139.327   1.2014   -0.3579
266   1   1   0.502   139.695   2.331   -0.0709
267   1   36   -0.7069   139.704   2.9107   1.1898
268   1   5   0.2836   139.251   2.2724   2.3659
269   1   5   -0.1388   138.485   1.1074   2.3372
270   1   5   -0.1652   138.134   0.4521   3.5149
271   1   5   0.2589   138.454   1.0061   4.7525
272   1   51   -0.5259   138.091   0.4499   5.962
273   1   5   0.2582   136.925   -0.2845   6.0351
274   1   5   -0.1662   135.778   0.0174   5.2976
275   1   5   -0.1682   134.674   -0.8299   5.338
276   1   5   0.2593   134.643   -1.896   6.2379
277   1   51   -0.5271   133.573   -2.7505   6.3859
278   1   5   0.2573   132.292   -2.2931   6.1664
279   1   5   -0.1645   131.863   -0.9898   6.4265
280   1   5   -0.167   130.551   -0.6101   6.1364
281   1   5   0.2832   129.642   -1.5293   5.6108
282   1   5   -0.1693   130.043   -2.8613   5.4757
283   1   5   -0.1408   131.366   -3.2367   5.7249
284   1   5   -0.1455   135.769   -2.169   7.0205
285   1   5   -0.1463   136.912   -1.3687   6.9144
286   1   5   -0.1416   139.214   2.1764   4.797
287   1   5   -0.1691   139.608   2.8108   3.6077
288   1   5   -0.0452   140.256   3.1399   -1.1771
289   1   5   -0.074   140.962   2.4555   -2.1741
290   1   5   -0.1152   141.445   3.1305   -3.2934
291   1   5   0.0052   141.216   4.5028   -3.432
292   1   49   -0.4781   141.456   6.4634   -4.6672
293   1   5   -0.0833   140.508   5.1885   -2.4265
294   1   5   -0.1022   140.027   4.5114   -1.2981
295   1   26   0.300661   140.208   3.779   1.3083
296   1   24   0.208861   138.132   0.6719   1.4084
297   1   24   0.180561   137.583   -0.4812   3.4318
298   1   24   0.175561   135.742   0.8872   4.6465
299   1   24   0.174661   133.842   -0.6283   4.6701
300   1   24   0.176161   132.537   -0.251   6.8497
301   1   24   0.173161   130.246   0.4147   6.33
302   1   26   0.314361   128.16   -0.1877   5.2576
303   1   24   0.175361   129.327   -3.6195   5.1688
304   1   24   0.183961   131.669   -4.273   5.5867
305   1   24   0.185961   135.76   -3.0113   7.7073
306   1   24   0.185961   137.791   -1.5977   7.5115
307   1   24   0.184161   139.505   2.5934   5.7576
308   1   24   0.173661   140.211   3.7121   3.676
309   1   24   0.180661   141.12   1.3781   -2.0871
310   1   24   0.169061   141.978   2.5533   -4.0458
311   1   24   0.187761   140.304   6.2544   -2.5289
312   1   24   0.165161   139.438   5.0528   -0.5617
313   2   36   -0.8004   0.5819   37.4029   0.5926
314   2   1   0.2702   10.3657   42.6958   5.4732
315   2   49   -0.5255   6.509   40.0745   1.1114
316   2   1   0.5056   6.3037   40.0453   2.3195
317   2   36   -0.7051   5.2371   39.4488   2.9701
318   2   5   0.2847   4.1298   38.8363   2.3447
319   2   5   -0.1359   4.0081   38.718   0.9614
320   2   5   -0.164   2.8476   38.2008   0.3874
321   2   5   0.2878   1.8028   37.7393   1.1829
322   2   5   -0.1622   1.9198   37.8565   2.5696
323   2   5   -0.1629   3.084   38.3769   3.1516
324   2   5   -0.0434   7.3137   40.7035   3.181
325   2   5   -0.073   8.6328   40.7385   2.7107
326   2   5   -0.1135   9.6293   41.3787   3.446
327   2   5   0.0058   9.317   41.9997   4.6614
328   2   49   -0.4764   10.0021   43.2134   6.5249
329   2   5   -0.0817   7.9837   41.9754   5.1234
330   2   5   -0.1004   6.9853   41.3365   4.384
331   2   26   0.31233   5.2221   39.4631   3.981
332   2   24   0.22553   4.7864   39.0453   0.2822
333   2   24   0.19193   2.7718   38.1825   -0.6961
334   2   26   0.33023   0.6687   37.0876   -0.3689
335   2   24   0.18823   1.0937   37.5621   3.2112
336   2   24   0.18553   3.1346   38.4512   4.2343
337   2   24   0.19553   8.8846   40.2743   1.758
338   2   24   0.18303   10.6349   41.3838   3.0364
339   2   24   0.20153   7.7179   42.4747   6.054
340   2   24   0.17643   5.9589   41.3785   4.7386
341   2   36   -0.8004   11.5819   37.4029   0.5926
342   2   1   0.2702   21.3657   42.6958   5.4732
343   2   49   -0.5255   17.509   40.0745   1.1114
344   2   1   0.5056   17.3037   40.0453   2.3195
345   2   36   -0.7051   16.2371   39.4488   2.9701
346   2   5   0.2847   15.1298   38.8363   2.3447
347   2   5   -0.1359   15.0081   38.718   0.9614
348   2   5   -0.164   13.8476   38.2008   0.3874
349   2   5   0.2878   12.8028   37.7393   1.1829
350   2   5   -0.1622   12.9198   37.8565   2.5696
351   2   5   -0.1629   14.084   38.3769   3.1516
352   2   5   -0.0434   18.3137   40.7035   3.181
353   2   5   -0.073   19.6328   40.7385   2.7107
354   2   5   -0.1135   20.6293   41.3787   3.446
355   2   5   0.0058   20.317   41.9997   4.6614
356   2   49   -0.4764   21.0021   43.2134   6.5249
357   2   5   -0.0817   18.9837   41.9754   5.1234
358   2   5   -0.1004   17.9853   41.3365   4.384
359   2   26   0.31233   16.2221   39.4631   3.981
360   2   24   0.22553   15.7864   39.0453   0.2822
361   2   24   0.19193   13.7718   38.1825   -0.6961
362   2   26   0.33023   11.6687   37.0876   -0.3689
363   2   24   0.18823   12.0937   37.5621   3.2112
364   2   24   0.18553   14.1346   38.4512   4.2343
365   2   24   0.19553   19.8846   40.2743   1.758
366   2   24   0.18303   21.6349   41.3838   3.0364
367   2   24   0.20153   18.7179   42.4747   6.054
368   2   24   0.17643   16.9589   41.3785   4.7386
369   2   36   -0.8026   22.5092   38.8269   5.4557
370   2   1   0.2665   35.9036   45.2567   -4.6369
371   2   49   -0.5269   33.5375   41.2014   -0.3579
372   2   1   0.502   33.9062   42.331   -0.0709
373   2   36   -0.7069   33.9146   42.9107   1.1898
374   2   5   0.2836   33.4619   42.2724   2.3659
375   2   5   -0.1388   32.6962   41.1074   2.3372
376   2   5   -0.1652   32.3446   40.4521   3.5149
377   2   5   0.2589   32.6652   41.0061   4.7525
378   2   51   -0.5259   32.3018   40.4499   5.962
379   2   5   0.2582   31.136   39.7155   6.0351
380   2   5   -0.1662   29.989   40.0174   5.2976
381   2   5   -0.1682   28.8854   39.1701   5.338
382   2   5   0.2593   28.854   38.104   6.2379
383   2   51   -0.5271   27.7843   37.2495   6.3859
384   2   5   0.2573   26.5035   37.7069   6.1664
385   2   5   -0.1645   26.0738   39.0102   6.4265
386   2   5   -0.167   24.7617   39.3899   6.1364
387   2   5   0.2832   23.853   38.4707   5.6108
388   2   5   -0.1693   24.2537   37.1387   5.4757
389   2   5   -0.1408   25.5768   36.7633   5.7249
390   2   5   -0.1455   29.9798   37.831   7.0205
391   2   5   -0.1463   31.1231   38.6313   6.9144
392   2   5   -0.1416   33.4246   42.1764   4.797
393   2   5   -0.1691   33.8185   42.8108   3.6077
394   2   5   -0.0452   34.4673   43.1399   -1.1771
395   2   5   -0.074   35.1729   42.4555   -2.1741
396   2   5   -0.1152   35.6564   43.1305   -3.2934
397   2   5   0.0052   35.4274   44.5028   -3.432
398   2   49   -0.4781   35.6671   46.4634   -4.6672
399   2   5   -0.0833   34.7191   45.1885   -2.4265
400   2   5   -0.1022   34.2378   44.5114   -1.2981
401   2   26   0.300661   34.4191   43.779   1.3083
402   2   24   0.208861   32.3432   40.6719   1.4084
403   2   24   0.180561   31.7943   39.5188   3.4318
404   2   24   0.175561   29.9527   40.8872   4.6465
405   2   24   0.174661   28.0533   39.3717   4.6701
406   2   24   0.176161   26.7478   39.749   6.8497
407   2   24   0.173161   24.4575   40.4147   6.33
408   2   26   0.314361   22.3706   39.8123   5.2576
409   2   24   0.175361   23.5383   36.3805   5.1688
410   2   24   0.183961   25.8802   35.727   5.5867
411   2   24   0.185961   29.9707   36.9887   7.7073
412   2   24   0.185961   32.0016   38.4023   7.5115
413   2   24   0.184161   33.7161   42.5934   5.7576
414   2   24   0.173661   34.4219   43.7121   3.676
415   2   24   0.180661   35.3315   41.3781   -2.0871
416   2   24   0.169061   36.1891   42.5533   -4.0458
417   2   24   0.187761   34.5149   46.2544   -2.5289
418   2   24   0.165161   33.6491   45.0528   -0.5617
419   2   36   -0.8026   50.4389   38.8269   5.4557
420   2   1   0.2665   63.8333   45.2567   -4.6369
421   2   49   -0.5269   61.4672   41.2014   -0.3579
422   2   1   0.502   61.8359   42.331   -0.0709
423   2   36   -0.7069   61.8443   42.9107   1.1898
424   2   5   0.2836   61.3916   42.2724   2.3659
425   2   5   -0.1388   60.6259   41.1074   2.3372
426   2   5   -0.1652   60.2743   40.4521   3.5149
427   2   5   0.2589   60.5949   41.0061   4.7525
428   2   51   -0.5259   60.2315   40.4499   5.962
429   2   5   0.2582   59.0657   39.7155   6.0351
430   2   5   -0.1662   57.9187   40.0174   5.2976
431   2   5   -0.1682   56.8151   39.1701   5.338
432   2   5   0.2593   56.7837   38.104   6.2379
433   2   51   -0.5271   55.714   37.2495   6.3859
434   2   5   0.2573   54.4332   37.7069   6.1664
435   2   5   -0.1645   54.0035   39.0102   6.4265
436   2   5   -0.167   52.6914   39.3899   6.1364
437   2   5   0.2832   51.7827   38.4707   5.6108
438   2   5   -0.1693   52.1834   37.1387   5.4757
439   2   5   -0.1408   53.5065   36.7633   5.7249
440   2   5   -0.1455   57.9095   37.831   7.0205
441   2   5   -0.1463   59.0528   38.6313   6.9144
442   2   5   -0.1416   61.3543   42.1764   4.797
443   2   5   -0.1691   61.7482   42.8108   3.6077
444   2   5   -0.0452   62.397   43.1399   -1.1771
445   2   5   -0.074   63.1026   42.4555   -2.1741
446   2   5   -0.1152   63.5861   43.1305   -3.2934
447   2   5   0.0052   63.3571   44.5028   -3.432
448   2   49   -0.4781   63.5968   46.4634   -4.6672
449   2   5   -0.0833   62.6488   45.1885   -2.4265
450   2   5   -0.1022   62.1675   44.5114   -1.2981
451   2   26   0.300661   62.3488   43.779   1.3083
452   2   24   0.208861   60.2729   40.6719   1.4084
453   2   24   0.180561   59.724   39.5188   3.4318
454   2   24   0.175561   57.8824   40.8872   4.6465
455   2   24   0.174661   55.983   39.3717   4.6701
456   2   24   0.176161   54.6775   39.749   6.8497
457   2   24   0.173161   52.3872   40.4147   6.33
458   2   26   0.314361   50.3003   39.8123   5.2576
459   2   24   0.175361   51.468   36.3805   5.1688
460   2   24   0.183961   53.8099   35.727   5.5867
461   2   24   0.185961   57.9004   36.9887   7.7073
462   2   24   0.185961   59.9313   38.4023   7.5115
463   2   24   0.184161   61.6458   42.5934   5.7576
464   2   24   0.173661   62.3516   43.7121   3.676
465   2   24   0.180661   63.2612   41.3781   -2.0871
466   2   24   0.169061   64.1188   42.5533   -4.0458
467   2   24   0.187761   62.4446   46.2544   -2.5289
468   2   24   0.165161   61.5788   45.0528   -0.5617
469   2   36   -0.8004   78.4413   37.4029   0.5926
470   2   1   0.2702   88.2251   42.6958   5.4732
471   2   49   -0.5255   84.3684   40.0745   1.1114
472   2   1   0.5056   84.1631   40.0453   2.3195
473   2   36   -0.7051   83.0965   39.4488   2.9701
474   2   5   0.2847   81.9892   38.8363   2.3447
475   2   5   -0.1359   81.8675   38.718   0.9614
476   2   5   -0.164   80.707   38.2008   0.3874
477   2   5   0.2878   79.6622   37.7393   1.1829
478   2   5   -0.1622   79.7792   37.8565   2.5696
479   2   5   -0.1629   80.9434   38.3769   3.1516
480   2   5   -0.0434   85.1731   40.7035   3.181
481   2   5   -0.073   86.4922   40.7385   2.7107
482   2   5   -0.1135   87.4887   41.3787   3.446
483   2   5   0.0058   87.1764   41.9997   4.6614
484   2   49   -0.4764   87.8615   43.2134   6.5249
485   2   5   -0.0817   85.8431   41.9754   5.1234
486   2   5   -0.1004   84.8447   41.3365   4.384
487   2   26   0.31233   83.0815   39.4631   3.981
488   2   24   0.22553   82.6458   39.0453   0.2822
489   2   24   0.19193   80.6312   38.1825   -0.6961
490   2   26   0.33023   78.5281   37.0876   -0.3689
491   2   24   0.18823   78.9531   37.5621   3.2112
492   2   24   0.18553   80.994   38.4512   4.2343
493   2   24   0.19553   86.744   40.2743   1.758
494   2   24   0.18303   88.4943   41.3838   3.0364
495   2   24   0.20153   85.5773   42.4747   6.054
496   2   24   0.17643   83.8183   41.3785   4.7386
497   2   36   -0.8026   89.3686   38.8269   5.4557
498   2   1   0.2665   102.763   45.2567   -4.6369
499   2   49   -0.5269   100.397   41.2014   -0.3579
500   2   1   0.502   100.766   42.331   -0.0709
501   2   36   -0.7069   100.774   42.9107   1.1898
502   2   5   0.2836   100.321   42.2724   2.3659
503   2   5   -0.1388   99.5556   41.1074   2.3372
504   2   5   -0.1652   99.204   40.4521   3.5149
505   2   5   0.2589   99.5246   41.0061   4.7525
506   2   51   -0.5259   99.1612   40.4499   5.962
507   2   5   0.2582   97.9954   39.7155   6.0351
508   2   5   -0.1662   96.8484   40.0174   5.2976
509   2   5   -0.1682   95.7448   39.1701   5.338
510   2   5   0.2593   95.7134   38.104   6.2379
511   2   51   -0.5271   94.6437   37.2495   6.3859
512   2   5   0.2573   93.3629   37.7069   6.1664
513   2   5   -0.1645   92.9332   39.0102   6.4265
514   2   5   -0.167   91.6211   39.3899   6.1364
515   2   5   0.2832   90.7124   38.4707   5.6108
516   2   5   -0.1693   91.1131   37.1387   5.4757
517   2   5   -0.1408   92.4362   36.7633   5.7249
518   2   5   -0.1455   96.8392   37.831   7.0205
519   2   5   -0.1463   97.9825   38.6313   6.9144
520   2   5   -0.1416   100.284   42.1764   4.797
521   2   5   -0.1691   100.678   42.8108   3.6077
522   2   5   -0.0452   101.327   43.1399   -1.1771
523   2   5   -0.074   102.032   42.4555   -2.1741
524   2   5   -0.1152   102.516   43.1305   -3.2934
525   2   5   0.0052   102.287   44.5028   -3.432
526   2   49   -0.4781   102.526   46.4634   -4.6672
527   2   5   -0.0833   101.578   45.1885   -2.4265
528   2   5   -0.1022   101.097   44.5114   -1.2981
529   2   26   0.300661   101.278   43.779   1.3083
530   2   24   0.208861   99.2026   40.6719   1.4084
531   2   24   0.180561   98.6537   39.5188   3.4318
532   2   24   0.175561   96.8121   40.8872   4.6465
533   2   24   0.174661   94.9127   39.3717   4.6701
534   2   24   0.176161   93.6072   39.749   6.8497
535   2   24   0.173161   91.3169   40.4147   6.33
536   2   26   0.314361   89.23   39.8123   5.2576
537   2   24   0.175361   90.3977   36.3805   5.1688
538   2   24   0.183961   92.7396   35.727   5.5867
539   2   24   0.185961   96.8301   36.9887   7.7073
540   2   24   0.185961   98.861   38.4023   7.5115
541   2   24   0.184161   100.575   42.5934   5.7576
542   2   24   0.173661   101.281   43.7121   3.676
543   2   24   0.180661   102.191   41.3781   -2.0871
544   2   24   0.169061   103.048   42.5533   -4.0458
545   2   24   0.187761   101.374   46.2544   -2.5289
546   2   24   0.165161   100.508   45.0528   -0.5617
547   2   36   -0.8004   117.371   37.4029   0.5926
548   2   1   0.2702   127.155   42.6958   5.4732
549   2   49   -0.5255   123.298   40.0745   1.1114
550   2   1   0.5056   123.093   40.0453   2.3195
551   2   36   -0.7051   122.026   39.4488   2.9701
552   2   5   0.2847   120.919   38.8363   2.3447
553   2   5   -0.1359   120.797   38.718   0.9614
554   2   5   -0.164   119.637   38.2008   0.3874
555   2   5   0.2878   118.592   37.7393   1.1829
556   2   5   -0.1622   118.709   37.8565   2.5696
557   2   5   -0.1629   119.873   38.3769   3.1516
558   2   5   -0.0434   124.103   40.7035   3.181
559   2   5   -0.073   125.422   40.7385   2.7107
560   2   5   -0.1135   126.418   41.3787   3.446
561   2   5   0.0058   126.106   41.9997   4.6614
562   2   49   -0.4764   126.791   43.2134   6.5249
563   2   5   -0.0817   124.773   41.9754   5.1234
564   2   5   -0.1004   123.774   41.3365   4.384
565   2   26   0.31233   122.011   39.4631   3.981
566   2   24   0.22553   121.575   39.0453   0.2822
567   2   24   0.19193   119.561   38.1825   -0.6961
568   2   26   0.33023   117.458   37.0876   -0.3689
569   2   24   0.18823   117.883   37.5621   3.2112
570   2   24   0.18553   119.924   38.4512   4.2343
571   2   24   0.19553   125.674   40.2743   1.758
572   2   24   0.18303   127.424   41.3838   3.0364
573   2   24   0.20153   124.507   42.4747   6.054
574   2   24   0.17643   122.748   41.3785   4.7386